12   
Dihedral (-165, -165) Energy -193.667822028
C        1.6316903704   -0.2958335462    0.6971111125
C        0.7617403703    0.2075778930   -0.4520140267
H        1.5268752665    0.3364322642    1.5816712639
H        2.6859513324   -0.3025327668    0.4165158033
H        1.3525891791   -1.3131715693    0.9778563745
H        1.0738573178    1.2039804118   -0.7705376885
C       -0.7102445066    0.2380524479   -0.0883422186
H        0.8717688464   -0.4510785729   -1.3162628892
H       -0.9241212286    1.0694102587    0.5914142083
H       -0.9966495550   -0.6913266989    0.4170161680
O       -1.4547206265    0.3762395127   -1.3225606943
H       -2.3678297661    0.6379416657   -1.0680382133
12   
Dihedral (-165, -150) Energy -193.667160166
C        1.6357327387   -0.2842825244    0.6971686259
C        0.7528480421    0.1953411652   -0.4523151379
H        1.5228894133    0.3522964866    1.5776524248
H        2.6889947416   -0.2746846374    0.4129758217
H        1.3753109496   -1.3042411079    0.9862046762
H        1.0446865520    1.1955368976   -0.7783108829
C       -0.7190649751    0.1998978917   -0.0849437407
H        0.8733347049   -0.4661268219   -1.3131057597
H       -0.9438218960    1.0282782485    0.5937290008
H       -0.9890805056   -0.7319661418    0.4239484684
O       -1.4802614834    0.3162082377   -1.3132072975
H       -2.3106610821    0.7894335062   -1.0859669991
12   
Dihedral (-165, -135) Energy -193.666457908
C        1.6380655440   -0.2725808410    0.6954374821
C        0.7414914124    0.1855588363   -0.4523547214
H        1.5203574938    0.3680508029    1.5723380057
H        2.6895502751   -0.2492852561    0.4055710900
H        1.3943595140   -1.2942956915    0.9927370071
H        1.0164059906    1.1882341987   -0.7861624081
C       -0.7293328912    0.1675092832   -0.0771890944
H        0.8680939371   -0.4789349956   -1.3098491652
H       -0.9637879070    0.9870884748    0.6077106652
H       -0.9808792819   -0.7702258453    0.4285998112
O       -1.5178160029    0.2633024724   -1.2920166708
H       -2.2256007840    0.9212696613   -1.1209928015
12   
Dihedral (-165, -120) Energy -193.666212714
C        1.6386559836   -0.2614733675    0.6917410205
C        0.7278482628    0.1789792836   -0.4519459558
H        1.5187847694    0.3819526173    1.5662765104
H        2.6877365593   -0.2264321406    0.3945064399
H        1.4098507733   -1.2846333008    0.9958250958
H        0.9895795117    1.1833675209   -0.7924354608
C       -0.7408528217    0.1422138624   -0.0650828455
H        0.8561870406   -0.4880092358   -1.3070545593
H       -0.9828145818    0.9485453539    0.6322694545
H       -0.9737906273   -0.8042055986    0.4310250239
O       -1.5633385923    0.2201461779   -1.2592457477
H       -2.1169390777    1.0252398274   -1.1720496758
12   
Dihedral (-165, -105) Energy -193.666638370
C        1.6377527255   -0.2520605348    0.6858006522
C        0.7116420215    0.1762034655   -0.4503863147
H        1.5178563069    0.3910487948    1.5605174976
H        2.6837685534   -0.2055070160    0.3795538244
H        1.4230426463   -1.2773210587    0.9929807453
H        0.9626202599    1.1826607350   -0.7943821758
C       -0.7537306724    0.1239661538   -0.0482110883
H        0.8381260157   -0.4910442013   -1.3054059363
H       -0.9987074926    0.9164290005    0.6641674125
H       -0.9705614111   -0.8316644839    0.4349101918
O       -1.6114402112    0.1887963054   -1.2169139469
H       -1.9894615419    1.0941838397   -1.2388015617
12   
Dihedral (-165, -90) Energy -193.667498039
C        1.6357791266   -0.2453942499    0.6775085979
C        0.6927395710    0.1778236410   -0.4467281600
H        1.5178925088    0.3925157593    1.5562260947
H        2.6779245984   -0.1861980885    0.3605150180
H        1.4350521410   -1.2742099927    0.9820256062
H        0.9336071960    1.1878174802   -0.7891266543
C       -0.7679097801    0.1122075453   -0.0264185884
H        0.8148454413   -0.4855988609   -1.3053373122
H       -1.0096685233    0.8939961128    0.6997848028
H       -0.9731875521   -0.8508773333    0.4446005136
O       -1.6569915720    0.1710196602   -1.1691707394
H       -1.8491757556    1.1225893265   -1.3200497789
12   
Dihedral (-165, -75) Energy -193.668272860
C        1.6330900603   -0.2419779400    0.6672203992
C        0.6719713240    0.1843812703   -0.4404583357
H        1.5195834146    0.3853153812    1.5540303325
H        2.6705889971   -0.1692668223    0.3381140545
H        1.4455341858   -1.2758483831    0.9625297363
H        0.9028498705    1.1997110085   -0.7752763355
C       -0.7827434409    0.1068226203   -0.0007846526
H        0.7879772955   -0.4703591818   -1.3067379572
H       -1.0155882365    0.8820985963    0.7365327877
H       -0.9811001114   -0.8613013202    0.4611722506
O       -1.6968963403    0.1682733250   -1.1209531498
H       -1.7043598186    1.1078424458   -1.4115598299
12   
Dihedral (-165, -60) Energy -193.668495504
C        1.6299329131   -0.2415494058    0.6558564175
C        0.6512768152    0.1964745899   -0.4316860391
H        1.5238825155    0.3702843653    1.5542141828
H        2.6623722010   -0.1564439762    0.3141468886
H        1.4524085014   -1.2813233270    0.9358004109
H        0.8730462262    1.2181370048   -0.7541648550
C       -0.7970850902    0.1081675622    0.0262533666
H        0.7603189276   -0.4460123475   -1.3084062212
H       -1.0180931494    0.8789644407    0.7728827399
H       -0.9911337514   -0.8636704191    0.4813869875
O       -1.7302172349    0.1814715588   -1.0762472051
H       -1.5658015740    1.0511907539   -1.5062073735
12   
Dihedral (-165, -45) Energy -193.667989950
C        1.6263749091   -0.2441711355    0.6444532159
C        0.6333366220    0.2135320117   -0.4215824197
H        1.5294273111    0.3492325619    1.5559875938
H        2.6541940239   -0.1491734859    0.2916946286
H        1.4544338493   -1.2898164987    0.9049085797
H        0.8493766363    1.2419320414   -0.7264379520
C       -0.8092121097    0.1165685832    0.0517325170
H        0.7348812614   -0.4131038856   -1.3111472594
H       -1.0182810585    0.8826435555    0.8069396410
H       -0.9992420403   -0.8588657989    0.5011011152
O       -1.7575844916    0.2101459494   -1.0368357916
H       -1.4467975129    0.9567669016   -1.5969843685
12   
Dihedral (-165, -30) Energy -193.666957764
C        1.6225436502   -0.2493838389    0.6341949673
C        0.6205202938    0.2351085972   -0.4112310208
H        1.5348985741    0.3235750507    1.5595349667
H        2.6470461209   -0.1478712260    0.2737697300
H        1.4507416653   -1.3003102102    0.8721643783
H        0.8357991106    1.2694632433   -0.6951661311
C       -0.8177186982    0.1317200986    0.0729590670
H        0.7151257353   -0.3737505133   -1.3144789421
H       -1.0179338224    0.8909509672    0.8368543706
H       -1.0019628130   -0.8484260997    0.5159047461
O       -1.7790761399    0.2525996617   -1.0034595791
H       -1.3590763767    0.8320148693   -1.6772171528
12   
Dihedral (-165, -15) Energy -193.665909664
C        1.6187393355   -0.2562442137    0.6258359382
C        0.6139070571    0.2604203990   -0.4013179874
H        1.5396823793    0.2945669379    1.5652168741
H        2.6417155747   -0.1517730686    0.2619858700
H        1.4414990570   -1.3115424975    0.8389157841
H        0.8329902622    1.2991628599   -0.6638884026
C       -0.8221816065    0.1522289660    0.0882138467
H        0.7035448897   -0.3304877922   -1.3176620909
H       -1.0192625105    0.9019954148    0.8608409191
H       -0.9988070921   -0.8341791677    0.5228894727
O       -1.7935227797    0.3054237463   -0.9768821331
H       -1.3073973667    0.6861191159   -1.7403186910
12   
Dihedral (-165, 0) Energy -193.665398371
C        1.6151605283   -0.2639304177    0.6195772543
C        0.6131499995    0.2875833599   -0.3920747439
H        1.5426213471    0.2639820476    1.5724998256
H        2.6382757499   -0.1588801899    0.2563122598
H        1.4291259189   -1.3226255853    0.8067294377
H        0.8394713628    1.3297016305   -0.6322515206
C       -0.8230583821    0.1757244983    0.0969456334
H        0.7006091112   -0.2835300092   -1.3218494966
H       -1.0233821417    0.9145213395    0.8774033936
H       -0.9927554657   -0.8178142440    0.5214769798
O       -1.7987575165    0.3638612692   -0.9590350513
H       -1.2895532118    0.5270969010   -1.7819045717
12   
Dihedral (-165, 15) Energy -193.665672269
C        1.6123746198   -0.2721610272    0.6148812743
C        0.6177057487    0.3146115496   -0.3841419910
H        1.5428856945    0.2324961037    1.5805448979
H        2.6372166349   -0.1676337882    0.2563413924
H        1.4163022643   -1.3334360177    0.7756897092
H        0.8530668084    1.3596129115   -0.5999964064
C       -0.8207329708    0.2004756842    0.0992974383
H        0.7052796936   -0.2339364336   -1.3279632409
H       -1.0283801515    0.9284882597    0.8861203808
H       -0.9877153195   -0.7997654712    0.5125853318
O       -1.7938616349    0.4241770960   -0.9508026334
H       -1.3032341875    0.3627617333   -1.7987267530
12   
Dihedral (-165, 30) Energy -193.666520115
C        1.6110040784   -0.2801618321    0.6121175944
C        0.6271214957    0.3401953944   -0.3773776431
H        1.5408982651    0.2010432103    1.5896759253
H        2.6388482756   -0.1763067663    0.2620160562
H        1.4049764798   -1.3433575700    0.7462814400
H        0.8708183795    1.3878830435   -0.5676063563
C       -0.8154384343    0.2244132041    0.0951324231
H        0.7174072327   -0.1840957154   -1.3348418900
H       -1.0320910325    0.9427163193    0.8869770063
H       -0.9864396471   -0.7812781896    0.4960251168
O       -1.7785841484    0.4826525195   -0.9538174231
H       -1.3476138447    0.2019869823   -1.7907528497
12   
Dihedral (-165, 45) Energy -193.667413195
C        1.6114626589   -0.2873891626    0.6117967002
C        0.6410818403    0.3627635876   -0.3720454613
H        1.5356772262    0.1711346343    1.5998537339
H        2.6434414197   -0.1829201354    0.2741596311
H        1.3975165125   -1.3521349347    0.7198154175
H        0.8913907226    1.4131371491   -0.5351065874
C       -0.8071587485    0.2455296231    0.0843507117
H        0.7368331726   -0.1364652459   -1.3420261969
H       -1.0322384596    0.9557298188    0.8802784750
H       -0.9886015076   -0.7637521691    0.4724503037
O       -1.7542207470    0.5353474564   -0.9690366521
H       -1.4242766900    0.0547098784   -1.7606606754
12   
Dihedral (-165, 60) Energy -193.667827369
C        1.6162249890   -0.2877003360    0.6123734511
C        0.6568210620    0.3858164759   -0.3667108834
H        1.5262367899    0.1430035256    1.6117937105
H        2.6524616160   -0.1716386237    0.2918857923
H        1.4046132408   -1.3557829327    0.6887999959
H        0.9043955944    1.4408771323   -0.4987179214
C       -0.7972222094    0.2546689129    0.0684076999
H        0.7640424523   -0.0854994966   -1.3487976263
H       -1.0344354731    0.9515888639    0.8723189694
H       -0.9856158372   -0.7599176069    0.4381065059
O       -1.7260100915    0.5710175355   -0.9932636761
H       -1.5306051333   -0.0707428502   -1.7123667177
12   
Dihedral (-165, 75) Energy -193.667529109
C        1.6214405853   -0.2885980049    0.6160330459
C        0.6752644306    0.4023096044   -0.3638951875
H        1.5158908761    0.1214524818    1.6227092821
H        2.6622391691   -0.1643285678    0.3137797591
H        1.4116302109   -1.3586225567    0.6681097116
H        0.9214381596    1.4604796436   -0.4695902910
C       -0.7849018049    0.2618115928    0.0476247645
H        0.7946310949   -0.0466865832   -1.3542629217
H       -1.0312672273    0.9470198066    0.8592130654
H       -0.9823216955   -0.7562493184    0.4004285679
O       -1.6919275764    0.5994209016   -1.0279157151
H       -1.6612091224   -0.1623182998   -1.6484047811
12   
Dihedral (-165, 90) Energy -193.666690143
C        1.6258302492   -0.2890653639    0.6240104756
C        0.6948451058    0.4117226123   -0.3634472560
H        1.5037682210    0.1089997550    1.6337388802
H        2.6713026430   -0.1599841506    0.3403147213
H        1.4172052291   -1.3600487317    0.6603862830
H        0.9410944226    1.4714650416   -0.4513802860
C       -0.7712708939    0.2661547759    0.0229969438
H        0.8270693815   -0.0239689482   -1.3573836466
H       -1.0266230880    0.9399550766    0.8422297998
H       -0.9763162269   -0.7550234305    0.3591892924
O       -1.6515002796    0.6181335612   -1.0731479673
H       -1.8044975637   -0.2126495976   -1.5736778402
12   
Dihedral (-165, 105) Energy -193.665802087
C        1.6332168544   -0.2828107508    0.6293587391
C        0.7101722869    0.4215037250   -0.3629702751
H        1.4914245843    0.0990085580    1.6428523084
H        2.6814266311   -0.1382209434    0.3637339185
H        1.4362919210   -1.3565363487    0.6468707109
H        0.9479218188    1.4845714422   -0.4330811522
C       -0.7588739048    0.2569611167    0.0004232572
H        0.8569019939    0.0000865171   -1.3603744878
H       -1.0296893774    0.9084542540    0.8339459588
H       -0.9573869518   -0.7730555925    0.3102353409
O       -1.6121842658    0.6188526520   -1.1163494897
H       -1.9483144906   -0.2231238294   -1.4908156291
12   
Dihedral (-165, 120) Energy -193.665405189
C        1.6374460225   -0.2776261947    0.6398585288
C        0.7249505259    0.4213602501   -0.3658132541
H        1.4789463325    0.1028914382    1.6514135723
H        2.6884125256   -0.1260944310    0.3893168746
H        1.4472951566   -1.3526253578    0.6539199806
H        0.9584902935    1.4858195582   -0.4311683993
C       -0.7467949167    0.2472451711   -0.0240367787
H        0.8849491221    0.0013804539   -1.3612272283
H       -1.0327125434    0.8826877439    0.8182717186
H       -0.9396548441   -0.7896339508    0.2650424074
O       -1.5671705753    0.6095243436   -1.1665016475
H       -2.0832500992   -0.1892381246   -1.4052466745
12   
Dihedral (-165, 135) Energy -193.665744453
C        1.6415075716   -0.2704233246    0.6501783507
C        0.7364063971    0.4169337798   -0.3698996618
H        1.4662226372    0.1115832159    1.6584132784
H        2.6941217169   -0.1094290648    0.4127600424
H        1.4615223066   -1.3471478606    0.6646942027
H        0.9619022454    1.4832802151   -0.4347204832
C       -0.7365205858    0.2293811154   -0.0473298736
H        0.9108099825   -0.0047962606   -1.3617904668
H       -1.0396666975    0.8517736856    0.8001093811
H       -0.9203405890   -0.8140214702    0.2251143026
O       -1.5243105185    0.5854959509   -1.2135303144
H       -2.2007474665   -0.1169390820   -1.3201696582
12   
Dihedral (-165, 150) Energy -193.666614295
C        1.6457762796   -0.2619425376    0.6595501687
C        0.7443070138    0.4085810977   -0.3746175203
H        1.4536350272    0.1227036675    1.6637046349
H        2.6988217473   -0.0879976438    0.4334431244
H        1.4799150256   -1.3408509873    0.6771062528
H        0.9568148626    1.4775174244   -0.4411924777
C       -0.7284595336    0.2031382796   -0.0689606784
H        0.9347074278   -0.0155639495   -1.3624026188
H       -1.0491341204    0.8187721891    0.7780411154
H       -0.9027818049   -0.8448356236    0.1950248020
O       -1.4876980705    0.5476360211   -1.2551623805
H       -2.2949969545   -0.0114671377   -1.2407054227
12   
Dihedral (-165, 165) Energy -193.667521752
C        1.6190564246   -0.3101533601    0.6970931177
C        0.7719615877    0.2643835814   -0.4358491082
H        1.5041944472    0.2718078218    1.6143158033
H        2.6777765283   -0.3094862733    0.4336857205
H        1.3280858246   -1.3395381561    0.9150481898
H        1.1045313805    1.2705019577   -0.6988826575
C       -0.7042695034    0.2960916304   -0.0876526013
H        0.8828451974   -0.3515557730   -1.3305007261
H       -0.9241933559    1.0895216687    0.6350437154
H       -0.9971184187   -0.6586440609    0.3625602604
O       -1.4373291917    0.5080410428   -1.3183377071
H       -2.3746340206    0.2847211208   -1.1226947070
12   
Dihedral (-165, 180) Energy -193.667993921
C        1.6249282836   -0.2997934121    0.7011400113
C        0.7702987864    0.2500832138   -0.4382733109
H        1.4937143756    0.2850088542    1.6143781830
H        2.6844817994   -0.2777382314    0.4420625048
H        1.3551894432   -1.3338277324    0.9240924355
H        1.0826285904    1.2610634867   -0.7069245423
C       -0.7070169936    0.2557256923   -0.0955904761
H        0.8966144536   -0.3693145494   -1.3286924313
H       -0.9406057228    1.0525719720    0.6189159018
H       -0.9893333171   -0.6994186023    0.3616549008
O       -1.4327459881    0.4449386612   -1.3334405059
H       -2.3872469106    0.4463916474   -1.0954933706
12   
Dihedral (-150, -165) Energy -193.665936860
C        1.6249328260   -0.3373689097    0.6823743867
C        0.7723558415    0.2976140421   -0.4135780734
H        1.5013125070    0.1805331904    1.6362715841
H        2.6843463401   -0.3063533796    0.4231563810
H        1.3444265342   -1.3817640881    0.8297697730
H        1.0983287852    1.3184379816   -0.6213916359
C       -0.7120156844    0.2823325438   -0.0808937037
H        0.8942439576   -0.2676591809   -1.3400114394
H       -1.0010183823    1.1751778828    0.4824969477
H       -0.9544009075   -0.5928540785    0.5326138371
O       -1.4340508825    0.2064818657   -1.3347545676
H       -2.3675540348    0.4411132304   -1.1322241897
12   
Dihedral (-150, -150) Energy -193.665272002
C        1.6318149507   -0.3264258862    0.6830656409
C        0.7625366949    0.2849478728   -0.4132337662
H        1.5050667734    0.1970008794    1.6335371970
H        2.6891063286   -0.2802353238    0.4175929824
H        1.3691905478   -1.3739769952    0.8405109401
H        1.0692090595    1.3095808031   -0.6319344286
C       -0.7203834486    0.2456295517   -0.0736785515
H        0.8900094223   -0.2857562266   -1.3356280981
H       -1.0196590512    1.1345823994    0.4890150127
H       -0.9460848853   -0.6305589828    0.5440161637
O       -1.4584455405    0.1474325728   -1.3185408355
H       -2.3214539517    0.5934703355   -1.1708928571
12   
Dihedral (-150, -135) Energy -193.664551449
C        1.6361547085   -0.3154580446    0.6818536385
C        0.7506862903    0.2745144583   -0.4133558486
H        1.5085929243    0.2136051402    1.6290876925
H        2.6908722427   -0.2568289198    0.4087882902
H        1.3890591940   -1.3652090576    0.8493814075
H        1.0419509542    1.3015563514   -0.6428304456
C       -0.7301142357    0.2150946477   -0.0631091751
H        0.8800617676   -0.3019812093   -1.3317844881
H       -1.0378369661    1.0954855120    0.5070430020
H       -0.9364851835   -0.6660811891    0.5527808003
O       -1.4959332821    0.0958515563   -1.2912212981
H       -2.2461015142    0.7251416546   -1.2228041756
12   
Dihedral (-150, -120) Energy -193.664302559
C        1.6379762092   -0.3051974806    0.6783919618
C        0.7368141895    0.2671107385   -0.4135719044
H        1.5117719281    0.2286160085    1.6231205736
H        2.6897654868   -0.2364982921    0.3965994453
H        1.4040333500   -1.3565041973    0.8547392223
H        1.0166457200    1.2956229551   -0.6522587760
C       -0.7411140787    0.1919494361   -0.0489947153
H        0.8643256032   -0.3145844465   -1.3288375583
H       -1.0546593435    1.0604927397    0.5353382073
H       -0.9277684402   -0.6976937887    0.5590469953
O       -1.5419016582    0.0546163639   -1.2533386410
H       -2.1449819662    0.8277608633   -1.2864054107
12   
Dihedral (-150, -105) Energy -193.664740761
C        1.6377191887   -0.2966967310    0.6721962990
C        0.7204073746    0.2633859687   -0.4128341679
H        1.5151035741    0.2390504957    1.6162638700
H        2.6860931992   -0.2189554266    0.3802795124
H        1.4152993340   -1.3495403372    0.8540301897
H        0.9912622445    1.2933580073   -0.6573319108
C       -0.7536335728    0.1760528450   -0.0305669189
H        0.8428374311   -0.3210892118   -1.3269530984
H       -1.0684987610    1.0330632982    0.5702867359
H       -0.9233295130   -0.7229246330    0.5666201757
O       -1.5903899874    0.0259305892   -1.2073419652
H       -2.0219634120    0.8940559355   -1.3608193214
12   
Dihedral (-150, -90) Energy -193.665607196
C        1.6359436149   -0.2909163327    0.6629923380
C        0.7011869357    0.2639749266   -0.4099268754
H        1.5194595434    0.2420443661    1.6093512890
H        2.6802096715   -0.2039949604    0.3592423434
H        1.4239568055   -1.3458292395    0.8449639843
H        0.9637505094    1.2962932076   -0.6551348314
C       -0.7677228665    0.1667869337   -0.0074333246
H        0.8162141391   -0.3189912329   -1.3260579526
H       -1.0781354272    1.0160344363    0.6078569734
H       -0.9256192712   -0.7396675202    0.5798524210
O       -1.6360501591    0.0113764470   -1.1578348754
H       -1.8822861956    0.9185797684   -1.4440419898
12   
Dihedral (-150, -75) Energy -193.666362231
C        1.6329790039   -0.2882334903    0.6511119238
C        0.6799963631    0.2694776021   -0.4042831005
H        1.5253927539    0.2365492074    1.6029982522
H        2.6724790784   -0.1921086154    0.3341372093
H        1.4297545089   -1.3458060730    0.8270426248
H        0.9345567293    1.3052716106   -0.6443509005
C       -0.7827546754    0.1639461682    0.0192644725
H        0.7862468914   -0.3069433638   -1.3258782732
H       -1.0837263714    1.0097879472    0.6453616818
H       -0.9340556312   -0.7472976803    0.5995619802
O       -1.6759849126    0.0119732835   -1.1100137598
H       -1.7339765384    0.8990743040   -1.5311226106
12   
Dihedral (-150, -60) Energy -193.666530318
C        1.6289021175   -0.2884717446    0.6375531301
C        0.6589589216    0.2803056517   -0.3962871274
H        1.5326093224    0.2233705234    1.5975619294
H        2.6634319909   -0.1843715036    0.3071897804
H        1.4312389773   -1.3488800819    0.8017463098
H        0.9069704763    1.3202285232   -0.6256435295
C       -0.7974157524    0.1677424510    0.0468037220
H        0.7562057671   -0.2850266973   -1.3261634267
H       -1.0863133091    1.0123607101    0.6813576530
H       -0.9451392262   -0.7466539647    0.6224378461
O       -1.7098663937    0.0281270658   -1.0676536283
H       -1.5886756918    0.8369598669   -1.6150731588
12   
Dihedral (-150, -45) Energy -193.665933858
C        1.6238863922   -0.2910791130    0.6238717221
C        0.6408606080    0.2967858898   -0.3866802417
H        1.5407250522    0.2040545828    1.5937142536
H        2.6539480237   -0.1820653612    0.2814294398
H        1.4265579187   -1.3538658118    0.7715979407
H        0.8852270578    1.3405754584   -0.6014730074
C       -0.8101272377    0.1782062179    0.0717678832
H        0.7305441118   -0.2546346031   -1.3262339395
H       -1.0874391836    1.0205903731    0.7148019217
H       -0.9542011087   -0.7396839787    0.6429508059
O       -1.7384346765    0.0594894733   -1.0326519751
H       -1.4606397578    0.7373175726   -1.6892653033
12   
Dihedral (-150, -30) Energy -193.664783274
C        1.6178488651   -0.2962072142    0.6111673086
C        0.6283975798    0.3175846753   -0.3773815091
H        1.5457471326    0.1798178228    1.5913019471
H        2.6450831752   -0.1847874258    0.2611588929
H        1.4164835225   -1.3607369638    0.7390902871
H        0.8743368161    1.3647032233   -0.5719429951
C       -0.8189811768    0.1948286168    0.0913479545
H        0.7133416723   -0.2153220599   -1.3286807225
H       -1.0871569830    1.0329874673    0.7430929676
H       -0.9574621728   -0.7273903468    0.6580665241
O       -1.7625942094    0.1036589697   -1.0045368426
H       -1.3641370215    0.6065539353   -1.7488544126
12   
Dihedral (-150, -15) Energy -193.663610724
C        1.6115982376   -0.3024886633    0.6004658331
C        0.6222710609    0.3424276938   -0.3682562046
H        1.5503692938    0.1537214752    1.5906474265
H        2.6376101339   -0.1936254072    0.2461336864
H        1.4000591816   -1.3673066566    0.7074860813
H        0.8738205233    1.3917374367   -0.5404936141
C       -0.8239941529    0.2156841405    0.1039913364
H        0.7060687896   -0.1696992147   -1.3317395367
H       -1.0891283668    1.0457133477    0.7657569834
H       -0.9547166570   -0.7132693715    0.6635580603
O       -1.7801219186    0.1573279475   -0.9847461737
H       -1.3029288254    0.4554681719   -1.7889744782
12   
Dihedral (-150, 0) Energy -193.662998910
C        1.6053967155   -0.3099042847    0.5913968278
C        0.6219230880    0.3675929453   -0.3607931484
H        1.5440848711    0.1195074746    1.5934600228
H        2.6327847292   -0.1964679075    0.2425378240
H        1.3882264286   -1.3761493889    0.6692402855
H        0.8827004334    1.4180099283   -0.5092065732
C       -0.8250974203    0.2401492941    0.1103910989
H        0.7062682253   -0.1206058936   -1.3371791468
H       -1.0913452680    1.0623439534    0.7793564472
H       -0.9497393991   -0.6950719907    0.6635731470
O       -1.7888074578    0.2160647099   -0.9732002019
H       -1.2754877458    0.2902218598   -1.8057471829
12   
Dihedral (-150, 15) Energy -193.663215098
C        1.6006692233   -0.3172451174    0.5838647092
C        0.6264110551    0.3930500268   -0.3536845948
H        1.5381202141    0.0856386477    1.5967960877
H        2.6304464682   -0.2021683186    0.2426433779
H        1.3757459842   -1.3836800495    0.6328805750
H        0.8964942970    1.4441844855   -0.4764859268
C       -0.8235664318    0.2647996230    0.1106106659
H        0.7127002528   -0.0687213480   -1.3430392351
H       -1.0965834222    1.0781771983    0.7854940415
H       -0.9466801123   -0.6772867623    0.6551176700
O       -1.7859346662    0.2763357420   -0.9729380606
H       -1.2769157623    0.1226065724   -1.7974300098
12   
Dihedral (-150, 30) Energy -193.664061872
C        1.5980252685   -0.3241696557    0.5780621749
C        0.6350871127    0.4170079116   -0.3471612893
H        1.5317486089    0.0530492039    1.6006181766
H        2.6309759072   -0.2081706447    0.2468327735
H        1.3658743879   -1.3901119128    0.5991807683
H        0.9130200400    1.4688196490   -0.4417520778
C       -0.8194489426    0.2878106944    0.1048406126
H        0.7241242183   -0.0160598314   -1.3490873517
H       -1.1015752150    1.0929353071    0.7841538639
H       -0.9482475670   -0.6607989867    0.6385844194
O       -1.7711940879    0.3343857834   -0.9848062683
H       -1.3074825307   -0.0390068179   -1.7656364021
12   
Dihedral (-150, 45) Energy -193.664999545
C        1.5981062157   -0.3299377201    0.5748293143
C        0.6477296876    0.4384330574   -0.3412197077
H        1.5247803295    0.0230649467    1.6055769341
H        2.6348579725   -0.2124486467    0.2561394180
H        1.3607117981   -1.3950924396    0.5693058635
H        0.9307834142    1.4909403033   -0.4060732520
C       -0.8126502069    0.3071809039    0.0929800086
H        0.7411682822    0.0339220448   -1.3541162469
H       -1.1039568781    1.1050045571    0.7759709475
H       -0.9536955963   -0.6470389616    0.6142049926
O       -1.7462270631    0.3863042478   -1.0087006433
H       -1.3707007553   -0.1846415929   -1.7150682286
12   
Dihedral (-150, 60) Energy -193.665463595
C        1.6009486385   -0.3337854983    0.5749413341
C        0.6638083559    0.4565510724   -0.3361878308
H        1.5166518855   -0.0026738658    1.6121834568
H        2.6419632996   -0.2133181729    0.2714927168
H        1.3612922008   -1.3981859187    0.5446256215
H        0.9487209180    1.5097646459   -0.3719658012
C       -0.8031647898    0.3211858059    0.0752748968
H        0.7647726358    0.0776921375   -1.3575290721
H       -1.1028025215    1.1120098418    0.7624762951
H       -0.9594584551   -0.6377157916    0.5827217118
O       -1.7139247918    0.4282073845   -1.0429427503
H       -1.4679002758   -0.3040409407   -1.6512611786
12   
Dihedral (-150, 75) Energy -193.665187011
C        1.6059156569   -0.3351734915    0.5785722410
C        0.6820257483    0.4706949545   -0.3326421962
H        1.5068887264   -0.0224118236    1.6203036417
H        2.6513514543   -0.2098463464    0.2926430540
H        1.3674814614   -1.3991345638    0.5264664281
H        0.9657980001    1.5246574103   -0.3427339615
C       -0.7914341527    0.3288491651    0.0529904682
H        0.7941121503    0.1123948652   -1.3594880434
H       -1.0991150194    1.1115314562    0.7463339941
H       -0.9611842231   -0.6346663652    0.5454515407
O       -1.6768307548    0.4571890473   -1.0849928375
H       -1.5941020479   -0.3883937082   -1.5790750292
12   
Dihedral (-150, 90) Energy -193.664344677
C        1.6120724177   -0.3336439813    0.5854315378
C        0.7002758952    0.4806883864   -0.3306022641
H        1.4967219164   -0.0347131094    1.6296461803
H        2.6614906048   -0.2021990770    0.3172482530
H        1.3776005637   -1.3975484980    0.5159053382
H        0.9802951441    1.5356101990   -0.3223479902
C       -0.7784723502    0.3299050134    0.0285513816
H        0.8257755193    0.1350817134   -1.3596234682
H       -1.0957589617    1.1013922595    0.7311257829
H       -0.9557715107   -0.6398224427    0.5037470680
O       -1.6357335143    0.4721437829   -1.1321565683
H       -1.7375886244   -0.4312035462   -1.5030959510
12   
Dihedral (-150, 105) Energy -193.663453562
C        1.6184202981   -0.3296380742    0.5942631425
C        0.7167869081    0.4856264594   -0.3309774836
H        1.4852324743   -0.0387854199    1.6387207731
H        2.6711424569   -0.1902100634    0.3434973432
H        1.3914927595   -1.3943875109    0.5132965869
H        0.9915905686    1.5418209174   -0.3106088175
C       -0.7654398540    0.3244624061    0.0042684226
H        0.8559157501    0.1468225666   -1.3599424401
H       -1.0946431300    1.0819592256    0.7180189219
H       -0.9429188749   -0.6536081794    0.4602242205
O       -1.5913760589    0.4723930770   -1.1810928382
H       -1.8852962980   -0.4307646042   -1.4258386314
12   