12   
Dihedral (-165, -150) Energy -193.680731309
C        1.6338706870   -0.2808471456    0.6952639283
C        0.7514474134    0.2081085932   -0.4496752083
H        1.5053599618    0.3366156062    1.5903087527
H        2.6910977414   -0.2484524697    0.4193440543
H        1.3878948273   -1.3128393844    0.9623288592
H        1.0335741488    1.2187433239   -0.7613211786
C       -0.7237452640    0.1913335693   -0.0920511131
H        0.8827859401   -0.4397867331   -1.3228751502
H       -0.9516726801    1.0066989137    0.6087115971
H       -0.9764842430   -0.7539759018    0.4110448476
O       -1.4757215669    0.3183214239   -1.3031899060
H       -2.3076409913    0.7717086455   -1.0940819777
12   
Dihedral (-165, -120) Energy -193.679850494
C        1.6368005220   -0.2583770053    0.6908227706
C        0.7277168481    0.1912917759   -0.4496327285
H        1.5059442768    0.3700060590    1.5779441649
H        2.6894552925   -0.2071638041    0.4005945465
H        1.4173811861   -1.2912099086    0.9775005489
H        0.9811570173    1.2057901495   -0.7760813950
C       -0.7445039781    0.1346304817   -0.0741653148
H        0.8664529810   -0.4623388748   -1.3170828091
H       -0.9903205497    0.9277291188    0.6441794976
H       -0.9615371258   -0.8236173339    0.4156106962
O       -1.5569246410    0.2225467397   -1.2520966325
H       -2.1208360245    1.0063381929   -1.1737706403
12   
Dihedral (-165, -90) Energy -193.681133243
C        1.6340179654   -0.2427785618    0.6776132580
C        0.6937141472    0.1887445263   -0.4447611379
H        1.5082509679    0.3834912185    1.5668447184
H        2.6797274315   -0.1724567118    0.3670287276
H        1.4388895176   -1.2793309023    0.9683781797
H        0.9288195806    1.2081548400   -0.7738653986
C       -0.7709392621    0.1057717596   -0.0366147197
H        0.8247094611   -0.4625145300   -1.3148821783
H       -1.0155850962    0.8738416528    0.7103073218
H       -0.9623417798   -0.8677905739    0.4268230566
O       -1.6488906956    0.1728856048   -1.1648040340
H       -1.8595631590    1.1076087618   -1.3182407244
12   
Dihedral (-165, -60) Energy -193.682030230
C        1.6275483212   -0.2403539892    0.6572029536
C        0.6531089136    0.2045139145   -0.4304043093
H        1.5111441184    0.3598965219    1.5652094303
H        2.6641308790   -0.1430264406    0.3242673952
H        1.4561976937   -1.2874377624    0.9232120052
H        0.8727209344    1.2341575843   -0.7407793009
C       -0.7998549581    0.1035924516    0.0152075019
H        0.7694587026   -0.4279211839   -1.3169286719
H       -1.0207133591    0.8623456256    0.7811898224
H       -0.9830165146   -0.8766218121    0.4644873706
O       -1.7206050133    0.1831378437   -1.0741793132
H       -1.5793019364    1.0433573244   -1.5046697239
12   
Dihedral (-165, -30) Energy -193.680418875
C        1.6196439247   -0.2488060203    0.6361725441
C        0.6222177343    0.2410860880   -0.4101613459
H        1.5199317793    0.3118591936    1.5708007059
H        2.6486737546   -0.1337361687    0.2861113693
H        1.4548091086   -1.3066113052    0.8592104755
H        0.8366748410    1.2815796822   -0.6849787022
C       -0.8210873072    0.1280788121    0.0615891851
H        0.7241343405   -0.3610275417   -1.3208217981
H       -1.0192842901    0.8771854881    0.8424409575
H       -0.9958562649   -0.8588177437    0.5016282650
O       -1.7676637716    0.2532012000   -1.0030033321
H       -1.3713682805    0.8316424960   -1.6751659141
12   
Dihedral (-165, 0) Energy -193.678872946
C        1.6124131802   -0.2634971367    0.6208818868
C        0.6139733312    0.2922487387   -0.3908510858
H        1.5308780393    0.2551579950    1.5810336062
H        2.6397346895   -0.1486869638    0.2658309243
H        1.4313705754   -1.3274494132    0.7965963826
H        0.8384933585    1.3395586733   -0.6233924016
C       -0.8271664388    0.1715120699    0.0864124621
H        0.7093086214   -0.2733632165   -1.3273463399
H       -1.0251598303    0.9015195935    0.8810113178
H       -0.9869835095   -0.8281131616    0.5110363850
O       -1.7867202510    0.3623339757   -0.9583875198
H       -1.2993294061    0.5344253696   -1.7790092047
12   
Dihedral (-165, 30) Energy -193.680045963
C        1.6088383044   -0.2798524322    0.6128144684
C        0.6274609530    0.3440368996   -0.3757437470
H        1.5338742709    0.1950526199    1.5959427321
H        2.6403223500   -0.1705330107    0.2681346389
H        1.4051811136   -1.3468942331    0.7392612323
H        0.8680386657    1.3962353530   -0.5604717994
C       -0.8196349304    0.2198378661    0.0857400310
H        0.7260138320   -0.1758988377   -1.3391601411
H       -1.0347314805    0.9300040125    0.8896026911
H       -0.9804486160   -0.7920075980    0.4888772048
O       -1.7680349171    0.4793225237   -0.9511897667
H       -1.3560640772    0.2163533744   -1.7899917256
12   
Dihedral (-165, 60) Energy -193.681397697
C        1.6121504578   -0.2930006122    0.6146015338
C        0.6590140241    0.3838824418   -0.3670141350
H        1.5218411620    0.1394600650    1.6161067984
H        2.6523934727   -0.1819251376    0.2976805275
H        1.3953187719   -1.3625174401    0.6918476369
H        0.9106008148    1.4406622656   -0.5006651023
C       -0.7998394589    0.2584237606    0.0591396090
H        0.7696444062   -0.0890623512   -1.3520690128
H       -1.0300821106    0.9545934484    0.8697268113
H       -0.9856970362   -0.7588501551    0.4383103542
O       -1.7151495151    0.5742351645   -0.9902160446
H       -1.5393679442   -0.0502318050   -1.7136221142
12   
Dihedral (-165, 90) Energy -193.680291073
C        1.6199762992   -0.2972943777    0.6273678467
C        0.6983389532    0.4057301437   -0.3661359311
H        1.4963637801    0.1050426001    1.6380785483
H        2.6700989669   -0.1761169337    0.3488618811
H        1.4040673940   -1.3693489705    0.6665343796
H        0.9538997937    1.4655791100   -0.4620186589
C       -0.7725607874    0.2755496652    0.0136187380
H        0.8295719471   -0.0378268595   -1.3603531379
H       -1.0164876269    0.9535953885    0.8372370727
H       -0.9796842568   -0.7461415585    0.3636829921
O       -1.6409703949    0.6237289250   -1.0692983339
H       -1.8117981323   -0.1868389875   -1.5737682868
12   
Dihedral (-165, 120) Energy -193.678982251
C        1.6277672566   -0.2898257515    0.6469706351
C        0.7303819563    0.4087101935   -0.3715727509
H        1.4697901065    0.1053541776    1.6557738399
H        2.6844280602   -0.1560181605    0.4008784155
H        1.4226216531   -1.3644194132    0.6731625301
H        0.9822732753    1.4708477678   -0.4544135058
C       -0.7471437634    0.2646966854   -0.0347578380
H        0.8848110347   -0.0297901074   -1.3630769977
H       -1.0159634242    0.9134705471    0.8081431754
H       -0.9495380620   -0.7694713666    0.2759668732
O       -1.5537020610    0.6176261703   -1.1664939596
H       -2.0849135697   -0.1555144118   -1.4067728403
12   
Dihedral (-165, 150) Energy -193.680137542
C        1.6130559793   -0.3221866669    0.6830550994
C        0.7655978650    0.2615533673   -0.4443481090
H        1.5278011691    0.2742588319    1.5971987999
H        2.6699224445   -0.3538091762    0.4056553419
H        1.2970217728   -1.3429538788    0.9182891650
H        1.1267728533    1.2543710573   -0.7316838116
C       -0.7054048081    0.3454318423   -0.0741110849
H        0.8399748312   -0.3728763607   -1.3331149939
H       -0.8797421511    1.1541228786    0.6502888926
H       -1.0061775029   -0.5965033916    0.4072838287
O       -1.4628517051    0.5598204820   -1.2695882464
H       -2.3351921836    0.1543948773   -1.1451551473
12   
Dihedral (-165, 180) Energy -193.681501114
C        1.6247933722   -0.3026601803    0.6926346179
C        0.7654022963    0.2344566218   -0.4483766410
H        1.5124262651    0.3041978730    1.5969514101
H        2.6838540439   -0.3009430276    0.4219505600
H        1.3433433608   -1.3301867890    0.9412632989
H        1.0890935288    1.2370238612   -0.7453179575
C       -0.7093098107    0.2692553495   -0.0924077917
H        0.8721387165   -0.4076062971   -1.3287601477
H       -0.9133963294    1.0843245646    0.6178692002
H       -0.9907418540   -0.6751647565    0.3984029501
O       -1.4410139086    0.4401413938   -1.3079093965
H       -2.3858115975    0.4627998275   -1.0825147842
12   
Dihedral (-150, -150) Energy -193.678782599
C        1.6305247414   -0.3234748229    0.6799136753
C        0.7601514218    0.2960248913   -0.4099512820
H        1.4917597454    0.1816400040    1.6415587081
H        2.6911541917   -0.2589771941    0.4226784234
H        1.3799302981   -1.3792092299    0.8173821311
H        1.0581786065    1.3289150430   -0.6158357139
C       -0.7254718031    0.2371409311   -0.0796609857
H        0.8964346194   -0.2618933612   -1.3422628552
H       -1.0276352097    1.1162429073    0.5055818922
H       -0.9355280131   -0.6514154859    0.5343728426
O       -1.4531958464    0.1525118459   -1.3101677593
H       -2.3154886916    0.5781280292   -1.1798116863
12   
Dihedral (-150, -120) Energy -193.677879617
C        1.6366285802   -0.3026693434    0.6763799294
C        0.7357865985    0.2774554704   -0.4107234784
H        1.5016133908    0.2163315281    1.6311855683
H        2.6916173859   -0.2203892508    0.4016380316
H        1.4108416698   -1.3608901308    0.8364313482
H        1.0086664516    1.3139010516   -0.6372300619
C       -0.7453018031    0.1847141940   -0.0570501424
H        0.8714856661   -0.2922303869   -1.3357023753
H       -1.0618850783    1.0433892727    0.5484700758
H       -0.9179380317   -0.7156625668    0.5469382057
O       -1.5352979215    0.0600830799   -1.2476743516
H       -2.1454011502    0.8115933440   -1.2888523865
12   
Dihedral (-150, -90) Energy -193.679176643
C        1.6344743661   -0.2890487426    0.6621292636
C        0.7015283748    0.2727704918   -0.4078839736
H        1.5097245062    0.2312940353    1.6175143525
H        2.6822517360   -0.1909036640    0.3659141956
H        1.4286466751   -1.3501332902    0.8298160458
H        0.9598270672    1.3122943719   -0.6419161538
C       -0.7711661084    0.1611481644   -0.0166863148
H        0.8232796595   -0.3001585498   -1.3327568303
H       -1.0827027653    1.0008290224    0.6191825475
H       -0.9172482222   -0.7546099373    0.5658655179
O       -1.6283849808    0.0165442057   -1.1543017004
H       -1.8894201312    0.9056095412   -1.4430672804
12   
Dihedral (-150, -60) Energy -193.679996776
C        1.6266866610   -0.2878043163    0.6380768594
C        0.6604667299    0.2867768224   -0.3952877657
H        1.5183685519    0.2105245381    1.6068971706
H        2.6656376327   -0.1704925318    0.3187639175
H        1.4362224192   -1.3543859313    0.7864126305
H        0.9072321476    1.3324314975   -0.6155794077
C       -0.8003384899    0.1640782392    0.0366368185
H        0.7635759986   -0.2718305895   -1.3319748618
H       -1.0870039448    1.0008975976    0.6904848631
H       -0.9389548303   -0.7575425439    0.6091390232
O       -1.7009154318    0.0332289233   -1.0656408630
H       -1.6001541654    0.8297539455   -1.6141114060
12   
Dihedral (-150, -30) Energy -193.678209362
C        1.6148325157   -0.2962360751    0.6122889328
C        0.6299079494    0.3219241718   -0.3772158101
H        1.5264326013    0.1646073517    1.6012242694
H        2.6474077800   -0.1682987236    0.2769359526
H        1.4230812586   -1.3669730816    0.7220605929
H        0.8763560050    1.3731365593   -0.5658809459
C       -0.8221049469    0.1923547757    0.0811511519
H        0.7204455038   -0.2077989416   -1.3335286869
H       -1.0857096130    1.0247336629    0.7495085967
H       -0.9530218553   -0.7349674259    0.6479726309
O       -1.7515088228    0.1076031466   -1.0033426794
H       -1.3752901958    0.6055417307   -1.7473541232
12   
Dihedral (-150, 0) Energy -193.676462258
C        1.6024237209   -0.3101245466    0.5921622107
C        0.6225793991    0.3707830355   -0.3602545777
H        1.5278541452    0.1064454232    1.6015190323
H        2.6348447467   -0.1837000665    0.2557961019
H        1.3928240418   -1.3812577984    0.6546135780
H        0.8830505814    1.4244608705   -0.5055590272
C       -0.8290258685    0.2372250001    0.1011676987
H        0.7134923005   -0.1162759877   -1.3408259157
H       -1.0909628429    1.0547099163    0.7836202914
H       -0.9460853038   -0.7020496230    0.6574420586
O       -1.7761627348    0.2182844419   -0.9722413870
H       -1.2840082454    0.2971054655   -1.8036484610
12   
Dihedral (-150, 30) Energy -193.677554794
C        1.5955924697   -0.3245835225    0.5788467047
C        0.6354841640    0.4194045436   -0.3458239601
H        1.5230688235    0.0457627602    1.6062363918
H        2.6325822091   -0.2032349122    0.2547594638
H        1.3659319757   -1.3936130316    0.5918160124
H        0.9120900159    1.4745233777   -0.4376402921
C       -0.8236143259    0.2840314523    0.0961030215
H        0.7320363670   -0.0114635936   -1.3522599509
H       -1.1031128219    1.0842042117    0.7871523013
H       -0.9443672883   -0.6689503524    0.6343522768
O       -1.7595225151    0.3346225341   -0.9827853633
H       -1.3153502458   -0.0251028923   -1.7669613909
12   
Dihedral (-150, 60) Energy -193.678955354
C        1.5991554985   -0.3344181916    0.5761317582
C        0.6645320295    0.4578039113   -0.3347456758
H        1.5117461673   -0.0074694994    1.6171902017
H        2.6436729678   -0.2121897607    0.2773264335
H        1.3597422464   -1.4012785395    0.5410642483
H        0.9480264227    1.5143150860   -0.3695728642
C       -0.8068233191    0.3179905561    0.0668537795
H        0.7714596492    0.0805239806   -1.3599516043
H       -1.1039574890    1.1046373666    0.7644168774
H       -0.9556316299   -0.6452200148    0.5800008804
O       -1.7050440937    0.4271186269   -1.0381923476
H       -1.4760610030   -0.2862008173   -1.6567299217
12   
Dihedral (-150, 90) Energy -193.677845298
C        1.6098747629   -0.3351901114    0.5863096162
C        0.7012745725    0.4802175182   -0.3309456395
H        1.4887367734   -0.0409401497    1.6339570986
H        2.6630084361   -0.2008407589    0.3251299762
H        1.3774245377   -1.4018038661    0.5112298345
H        0.9820109779    1.5380228646   -0.3233020281
C       -0.7813529203    0.3290801504    0.0204842271
H        0.8292595210    0.1346719528   -1.3630050911
H       -1.0931221084    1.0981975398    0.7330064447
H       -0.9522030320   -0.6442779135    0.5027478551
O       -1.6301353239    0.4708451424   -1.1238684071
H       -1.7439626171   -0.4123743668   -1.5079485204
12   
Dihedral (-150, 120) Energy -193.676563057
C        1.6213834880   -0.3255962760    0.6047027467
C        0.7309181301    0.4844136816   -0.3349771141
H        1.4631277327   -0.0428753546    1.6506779490
H        2.6799869552   -0.1728876877    0.3780109549
H        1.4078940294   -1.3947167281    0.5118269412
H        1.0014313466    1.5448641620   -0.3121097518
C       -0.7561161305    0.3135410214   -0.0255595943
H        0.8828649987    0.1437586206   -1.3640588413
H       -1.0914076924    1.0543791188    0.7101276098
H       -0.9212302664   -0.6777311095    0.4182347852
O       -1.5417057588    0.4576341888   -1.2174992557
H       -2.0263325675   -0.3691531775   -1.3555816334
12   
Dihedral (-150, 150) Energy -193.677910517
C        1.5963783149   -0.3632789781    0.6653638486
C        0.7798638031    0.3496744891   -0.4098492458
H        1.4805546492    0.1175238789    1.6423064057
H        2.6617042605   -0.3599927453    0.4197048575
H        1.2764614965   -1.4046930425    0.7645270725
H        1.1574230216    1.3632134251   -0.5784839189
C       -0.7083480503    0.3887984118   -0.0800655571
H        0.8779026708   -0.1872086698   -1.3582970082
H       -0.9564325214    1.2684709130    0.5304328105
H       -0.9653341883   -0.5017179155    0.5117914950
O       -1.4505423367    0.3924072604   -1.3052135281
H       -2.2987985891   -0.0475451434   -1.1384323506
12   
Dihedral (-150, 180) Energy -193.679503818
C        1.6151705095   -0.3442919744    0.6758642976
C        0.7763983521    0.3229731814   -0.4108012113
H        1.4815256416    0.1474724950    1.6450524216
H        2.6799807389   -0.3078940782    0.4307018959
H        1.3309556553   -1.3942086965    0.7908548763
H        1.1146151668    1.3473858711   -0.5950085498
C       -0.7116324299    0.3128028680   -0.0884268775
H        0.8980617863   -0.2243719810   -1.3510233793
H       -0.9901552554    1.1948271034    0.5064343268
H       -0.9504290525   -0.5778964489    0.5129911347
O       -1.4218819944    0.2726442576   -1.3288839351
H       -2.3717829916    0.2662008496   -1.1239626501
12   
Dihedral (-135, -150) Energy -193.676427010
C        1.6263382967   -0.3638431093    0.6532883346
C        0.7661482241    0.3777901061   -0.3663883814
H        1.4839780754    0.0332675125    1.6636427999
H        2.6893336512   -0.2794351732    0.4111408381
H        1.3666107318   -1.4261348413    0.6715204345
H        1.0723535390    1.4260052784   -0.4428315438
C       -0.7308377366    0.2771439779   -0.0691441955
H        0.9164576067   -0.0652501451   -1.3558185411
H       -1.1040856605    1.2075010701    0.3790043035
H       -0.9172199935   -0.5293687900    0.6554577993
O       -1.4153393637   -0.0155732030   -1.2937558646
H       -2.3028532057    0.3735297032   -1.2422550547
12   
Dihedral (-135, -120) Energy -193.675420862
C        1.6346362855   -0.3450576534    0.6506354094
C        0.7419351025    0.3578703098   -0.3688325100
H        1.4999960866    0.0684782043    1.6555109520
H        2.6916202398   -0.2432201458    0.3896744056
H        1.3977167164   -1.4119813729    0.6936329458
H        1.0280455777    1.4103200061   -0.4719703523
C       -0.7497021215    0.2296062733   -0.0418512894
H        0.8835172737   -0.1036551512   -1.3509124568
H       -1.1341854038    1.1429755323    0.4283637774
H       -0.8973925331   -0.5865093572    0.6771363572
O       -1.4989464847   -0.1032027652   -1.2198235450
H       -2.1463527445    0.6000074282   -1.3777140468
12   
Dihedral (-135, -90) Energy -193.676763388
C        1.6321222345   -0.3334372703    0.6355286261
C        0.7077087826    0.3517514003   -0.3681635514
H        1.5128121369    0.0853622816    1.6401099347
H        2.6819443297   -0.2199628565    0.3515848403
H        1.4093938626   -1.4028476256    0.6900496235
H        0.9842257889    1.4059682401   -0.4852826813
C       -0.7751891495    0.2115733924    0.0014003597
H        0.8300176122   -0.1195398494   -1.3484887452
H       -1.1533893607    1.1120209315    0.5030001504
H       -0.8950710941   -0.6196768781    0.7039227633
O       -1.5922206139   -0.1397157431   -1.1215745347
H       -1.8914748056    0.6841395869   -1.5382510574
12   
Dihedral (-135, -60) Energy -193.677560922
C        1.6217307636   -0.3332213699    0.6085142793
C        0.6669033077    0.3642724872   -0.3580107858
H        1.5261124263    0.0695170871    1.6219471042
H        2.6631448141   -0.2099937638    0.2989300721
H        1.4042374242   -1.4040542017    0.6510839772
H        0.9376656092    1.4207712578   -0.4664884053
C       -0.8044372634    0.2194226886    0.0550294033
H        0.7688287006   -0.0964897566   -1.3467233191
H       -1.1583324308    1.1221314795    0.5736106226
H       -0.9160277627   -0.6169461848    0.7507846740
O       -1.6662520269   -0.1175408240   -1.0352931656
H       -1.5927053463    0.5977673477   -1.6895499613
12   
Dihedral (-135, -30) Energy -193.675609708
C        1.6054369782   -0.3418437144    0.5789329800
C        0.6376294560    0.3971435274   -0.3428949273
H        1.5319764096    0.0269788570    1.6067501011
H        2.6415365303   -0.2153218060    0.2533563280
H        1.3790927331   -1.4114386670    0.5888451003
H        0.9131911981    1.4542028562   -0.4213457525
C       -0.8263644863    0.2508126501    0.0958342953
H        0.7313031275   -0.0323651831   -1.3481167687
H       -1.1567892199    1.1538629248    0.6284061412
H       -0.9297511253   -0.5897668568    0.7892836405
O       -1.7218826929   -0.0411428455   -0.9817972815
H       -1.3545216041    0.3645060780   -1.7834382613
12   
Dihedral (-135, 0) Energy -193.673759653
C        1.5888608250   -0.3551476243    0.5543465231
C        0.6309488997    0.4417003884   -0.3281731871
H        1.5254292879   -0.0307963004    1.5975215534
H        2.6256735132   -0.2314278762    0.2299368049
H        1.3445491483   -1.4202943312    0.5191606622
H        0.9224204844    1.4963600564   -0.3591855888
C       -0.8344112694    0.2960784107    0.1103560484
H        0.7293616328    0.0659106798   -1.3556850150
H       -1.1627022207    1.1888215982    0.6555316660
H       -0.9255658932   -0.5545842714    0.7982467458
O       -1.7505954449    0.0683271193   -0.9665406394
H       -1.2431221470    0.0506838806   -1.7916726758
12   
Dihedral (-135, 30) Energy -193.675012367
C        1.5798665689   -0.3677644437    0.5358194729
C        0.6423783657    0.4859380624   -0.3142456773
H        1.5156096645   -0.0906093650    1.5924486458
H        2.6208867913   -0.2480585028    0.2235247247
H        1.3192678356   -1.4267679471    0.4525907274
H        0.9488146871    1.5364878015   -0.2866775362
C       -0.8310587109    0.3407640057    0.1010279273
H        0.7433520067    0.1754193597   -1.3627779335
H       -1.1771505835    1.2192170842    0.6522030026
H       -0.9299485180   -0.5243142969    0.7746928262
O       -1.7330525993    0.1818686695   -0.9970555341
H       -1.2481327075   -0.2665644332   -1.7077004611
12   
Dihedral (-135, 60) Energy -193.676629785
C        1.5841992624   -0.3741913549    0.5287600453
C        0.6690350269    0.5225598414   -0.3016389590
H        1.5031568777   -0.1431937936    1.5954749114
H        2.6319381443   -0.2507132305    0.2412870591
H        1.3195689561   -1.4276932569    0.3962036009
H        0.9783475563    1.5690281560   -0.2142951516
C       -0.8160739191    0.3701712391    0.0690374558
H        0.7781570054    0.2664724038   -1.3622622355
H       -1.1790629600    1.2371568559    0.6253629452
H       -0.9466914675   -0.5093574531    0.7185970421
O       -1.6772124335    0.2700293461   -1.0671171190
H       -1.3945142045   -0.5146387977   -1.5655731465
12   
Dihedral (-135, 90) Energy -193.675612921
C        1.5985714275   -0.3714280732    0.5360637895
C        0.7030118772    0.5447015717   -0.2953657056
H        1.4824463823   -0.1765167002    1.6069887832
H        2.6540562115   -0.2316645417    0.2867560949
H        1.3478181602   -1.4221983455    0.3602898350
H        1.0023190101    1.5894747029   -0.1636976601
C       -0.7917705501    0.3753305634    0.0226495724
H        0.8345731672    0.3194912931   -1.3588157780
H       -1.1677739191    1.2280521411    0.5945080643
H       -0.9470284604   -0.5193327072    0.6422917631
O       -1.6016602660    0.3069799252   -1.1572147642
H       -1.6637046615   -0.6272437903   -1.4106287501
12   
Dihedral (-135, 120) Energy -193.674361059
C        1.6145734512   -0.3595291907    0.5530081470
C        0.7295254959    0.5495181049   -0.2972998551
H        1.4633751967   -0.1774185352    1.6219422565
H        2.6744016642   -0.1990759493    0.3367438601
H        1.3869026736   -1.4119634940    0.3579009840
H        1.0117070345    1.5971482170   -0.1508233170
C       -0.7671657905    0.3553356129   -0.0192170756
H        0.8853139479    0.3278680533   -1.3572392170
H       -1.1660776988    1.1824438179    0.5793861928
H       -0.9175054670   -0.5631135722    0.5638481882
O       -1.5098193220    0.2870635616   -1.2462033136
H       -1.9543606354   -0.5726191230   -1.2782070658
12   
Dihedral (-135, 150) Energy -193.675777525
C        1.5819889603   -0.4018816484    0.6353020165
C        0.7879874760    0.4315970387   -0.3678232084
H        1.4461030235   -0.0333198049    1.6572309723
H        2.6524186992   -0.3759667132    0.4134500528
H        1.2572214385   -1.4462606748    0.6094960540
H        1.1675540918    1.4580429746   -0.3938389329
C       -0.7163193403    0.4229301099   -0.0847459349
H        0.9203189458    0.0195906952   -1.3725043765
H       -1.0389614746    1.3602668853    0.3891129450
H       -0.9495792974   -0.3915379242    0.6159389071
O       -1.4153033586    0.2186331894   -1.3196004895
H       -2.2425362937   -0.2464918884   -1.1181623078
12   
Dihedral (-135, 180) Energy -193.677349376
C        1.6063884436   -0.3833197593    0.6474145723
C        0.7828310390    0.4054825016   -0.3672238181
H        1.4621595104   -0.0017856259    1.6634243255
H        2.6745843874   -0.3263757480    0.4206561801
H        1.3149339843   -1.4375502470    0.6405566344
H        1.1246070569    1.4440932523   -0.4155560381
C       -0.7183343457    0.3490485151   -0.0846422690
H        0.9290004281   -0.0211932051   -1.3642951647
H       -1.0707316314    1.2842792633    0.3733541343
H       -0.9336140562   -0.4638392857    0.6256055608
O       -1.3831746471    0.1013141161   -1.3274640624
H       -2.3377589013    0.0654681408   -1.1479765298
12   
Dihedral (-120, -150) Energy -193.675078142
C        1.6202489630   -0.4015372158    0.6146885356
C        0.7677134459    0.4508422424   -0.3216907389
H        1.4764720596   -0.1084522042    1.6593866759
H        2.6847755099   -0.3016528606    0.3846481511
H        1.3519570596   -1.4580167619    0.5225308069
H        1.0719049369    1.5004183388   -0.2496596981
C       -0.7367742107    0.3124306508   -0.0593184409
H        0.9351285132    0.1456779795   -1.3586281901
H       -1.1701495940    1.2792789946    0.2285125377
H       -0.9184711736   -0.3844584370    0.7718038719
O       -1.3630035225   -0.1826547117   -1.2506315833
H       -2.2689340520    0.1637521270   -1.2777914357
12   
Dihedral (-120, -120) Energy -193.673936425
C        1.6296064589   -0.3850977213    0.6125891341
C        0.7440197563    0.4303752968   -0.3261317915
H        1.4969899084   -0.0730635581    1.6533519187
H        2.6880557541   -0.2692249675    0.3629216140
H        1.3808977037   -1.4483499058    0.5472251059
H        1.0346698379    1.4862338363   -0.2860804616
C       -0.7548461648    0.2700883234   -0.0267401399
H        0.8955012393    0.1002839480   -1.3578540991
H       -1.1981843608    1.2241334602    0.2831670689
H       -0.8970099516   -0.4327286292    0.8038353373
O       -1.4476115114   -0.2639620730   -1.1655702806
H       -2.1212245394    0.3769442063   -1.4368653922
12   
Dihedral (-120, -90) Energy -193.675314317
C        1.6253297324   -0.3755310180    0.5970466706
C        0.7103026319    0.4237227140   -0.3275747696
H        1.5142568182   -0.0530785205    1.6371246277
H        2.6767376860   -0.2548649749    0.3213971847
H        1.3822152628   -1.4409200452    0.5483210893
H        0.9979038468    1.4813961008   -0.3084043448
C       -0.7800290130    0.2576098363    0.0190543463
H        0.8392645764    0.0779232986   -1.3578371419
H       -1.2192783799    1.2037696700    0.3610050673
H       -0.8921053824   -0.4602096910    0.8378030481
O       -1.5402134017   -0.2927403617   -1.0639981950
H       -1.8635337679    0.4485493495   -1.6000914292
12   
Dihedral (-120, -60) Energy -193.676129323
C        1.6112352938   -0.3766712293    0.5684482644
C        0.6706595293    0.4345474497   -0.3199761009
H        1.5307401100   -0.0632932464    1.6138706945
H        2.6544603882   -0.2561038379    0.2633375533
H        1.3624160946   -1.4404243899    0.5162359640
H        0.9595314633    1.4913822773   -0.2969662360
C       -0.8092651753    0.2704143106    0.0710280529
H        0.7795663149    0.0977428202   -1.3567978902
H       -1.2263078656    1.2224758885    0.4295236473
H       -0.9109534724   -0.4522978445    0.8851335423
O       -1.6163762906   -0.2652716946   -0.9814090951
H       -1.5548630138    0.3531121829   -1.7285776495
12   
Dihedral (-120, -30) Energy -193.674115400
C        1.5910622217   -0.3859621201    0.5361007064
C        0.6429327275    0.4635301228   -0.3076444973
H        1.5340423091   -0.1025389791    1.5912570388
H        2.6294160658   -0.2674945704    0.2140673849
H        1.3281699772   -1.4446095231    0.4576958289
H        0.9411109606    1.5158655876   -0.2541345896
C       -0.8316013940    0.3045453035    0.1063275489
H        0.7469809406    0.1650149713   -1.3583028415
H       -1.2252398788    1.2613433749    0.4775262078
H       -0.9245807191   -0.4203426309    0.9208598936
O       -1.6771648779   -0.1879977753   -0.9384181141
H       -1.3042721078    0.1142588380   -1.7814911083
12   
Dihedral (-120, 0) Energy -193.672424736
C        1.5715345810   -0.3986049162    0.5072931314
C        0.6358212168    0.5026581487   -0.2947847906
H        1.5221416200   -0.1588491584    1.5733637121
H        2.6106094707   -0.2829079446    0.1865459017
H        1.2927192911   -1.4494622180    0.3872606330
H        0.9504696448    1.5461703748   -0.1903236393
C       -0.8410279983    0.3497823368    0.1151265320
H        0.7421256439    0.2678438895   -1.3621483483
H       -1.2325700286    1.3002377382    0.4960414979
H       -0.9246364272   -0.3828548499    0.9279349953
O       -1.7064661958   -0.0815182528   -0.9421534260
H       -1.1698545461   -0.1968970393   -1.7402940126
12   
Dihedral (-120, 30) Energy -193.674032011
C        1.5644662231   -0.4050482953    0.4778382447
C        0.6429697157    0.5438079252   -0.2845845373
H        1.5163663440   -0.2126505446    1.5535097291
H        2.6055655865   -0.2890916814    0.1638780466
H        1.2757043612   -1.4477361198    0.3132875783
H        0.9701694838    1.5766529030   -0.1244985258
C       -0.8387047264    0.3900122679    0.1073174368
H        0.7411458023    0.3721536257   -1.3637699392
H       -1.2467613297    1.3283834626    0.4919849291
H       -0.9282957429   -0.3565363814    0.9107822221
O       -1.6911225075    0.0210177238   -0.9814160977
H       -1.1605370507   -0.5052885301   -1.6004450018
12   