12   
Dihedral (-165, -150) Energy -193.680731415
C        1.6329355331   -0.2835243224    0.6957762283
C        0.7519632213    0.2084939046   -0.4489350334
H        1.5068054397    0.3342222077    1.5909535139
H        2.6901843116   -0.2547403952    0.4195353888
H        1.3835091777   -1.3147190212    0.9627367795
H        1.0351498687    1.2195429107   -0.7583180768
C       -0.7236169709    0.1924492098   -0.0927568360
H        0.8837089860   -0.4377430714   -1.3232976538
H       -0.9513832631    1.0065535030    0.6095332332
H       -0.9779383504   -0.7536502314    0.4079931429
O       -1.4743436748    0.3225411200   -1.3043502613
H       -2.3060376156    0.7762598881   -1.0950374960
12   
Dihedral (-165, -120) Energy -193.679850386
C        1.6359497932   -0.2613120849    0.6912295404
C        0.7280592001    0.1909043165   -0.4491319363
H        1.5041134782    0.3647318238    1.5798531383
H        2.6888792892   -0.2092192243    0.4021700385
H        1.4163725236   -1.2949181765    0.9749900535
H        0.9830937857    1.2052426638   -0.7748175881
C       -0.7444754282    0.1364151163   -0.0745576126
H        0.8661637652   -0.4622919790   -1.3170264593
H       -0.9893819981    0.9295171371    0.6441098888
H       -0.9636735750   -0.8217571069    0.4143629387
O       -1.5557906399    0.2268314851   -1.2530570944
H       -2.1183745697    1.0115360087   -1.1742876106
12   
Dihedral (-165, -90) Energy -193.681132397
C        1.6330950018   -0.2455979334    0.6777998545
C        0.6940390444    0.1881758029   -0.4447580136
H        1.5038038286    0.3764194141    1.5695290085
H        2.6792989539   -0.1712028254    0.3698454780
H        1.4399488447   -1.2838940141    0.9635555056
H        0.9313530255    1.2067161902   -0.7748272115
C       -0.7707455815    0.1081694868   -0.0366981824
H        0.8236033221   -0.4642132575   -1.3142925986
H       -1.0137011747    0.8764685185    0.7105518992
H       -0.9639635075   -0.8651746763    0.4264833485
O       -1.6484584784    0.1773432154   -1.1649648399
H       -1.8573367229    1.1124670539   -1.3183821161
12   
Dihedral (-165, -60) Energy -193.682029805
C        1.6272312451   -0.2425311027    0.6566837250
C        0.6532095495    0.2042752440   -0.4305109020
H        1.5083869710    0.3540087147    1.5668348966
H        2.6640406421   -0.1417312123    0.3255010740
H        1.4577165277   -1.2909620199    0.9184745974
H        0.8743537077    1.2333797804   -0.7415516909
C       -0.7996839773    0.1053703687    0.0156538196
H        0.7680635158   -0.4287962217   -1.3167848749
H       -1.0190231975    0.8639557371    0.7822298386
H       -0.9839940329   -0.8748856362    0.4644473922
O       -1.7207728615    0.1867272980   -1.0733629980
H       -1.5785983146    1.0468768366   -1.5037673528
12   
Dihedral (-165, -30) Energy -193.680419104
C        1.6195179562   -0.2509117564    0.6351345285
C        0.6222625748    0.2405726846   -0.4106476582
H        1.5164165694    0.3053557613    1.5720467425
H        2.6488080919   -0.1310504518    0.2874588191
H        1.4575545805   -1.3101623186    0.8532829272
H        0.8381196394    1.2806777079   -0.6857627864
C       -0.8207755053    0.1297884087    0.0624197761
H        0.7225314434   -0.3618561090   -1.3212836648
H       -1.0167938948    0.8793187749    0.8434377383
H       -0.9967909593   -0.8567550720    0.5027315673
O       -1.7681998377    0.2564056457   -1.0012224854
H       -1.3717168469    0.8343072136   -1.6737466496
12   
Dihedral (-165, 0) Energy -193.678872560
C        1.6121164055   -0.2656757667    0.6201267603
C        0.6142244309    0.2917821603   -0.3912238790
H        1.5278007955    0.2495533212    1.5818803769
H        2.6398454201   -0.1475890050    0.2673365407
H        1.4329038003   -1.3305756879    0.7919429527
H        0.8404447579    1.3388611564   -0.6232838708
C       -0.8268010283    0.1731572274    0.0869433657
H        0.7081163962   -0.2734312866   -1.3280597016
H       -1.0231633518    0.9034617885    0.8816377561
H       -0.9876087510   -0.8262527054    0.5118039139
O       -1.7869081063    0.3654879986   -0.9570899297
H       -1.3000385020    0.5369098280   -1.7781601977
12   
Dihedral (-165, 30) Energy -193.680045713
C        1.6081426838   -0.2820131887    0.6127348525
C        0.6278956347    0.3437414703   -0.3757947475
H        1.5294088175    0.1886617292    1.5976271047
H        2.6403049450   -0.1688142956    0.2713626872
H        1.4066036928   -1.3500096856    0.7342600445
H        0.8701440853    1.3955442005   -0.5604820760
C       -0.8193121777    0.2214765295    0.0857757090
H        0.7256510260   -0.1763641363   -1.3392102743
H       -1.0331019546    0.9317230442    0.8899202351
H       -0.9816027250   -0.7902817589    0.4885238676
O       -1.7673865618    0.4826790654   -0.9509906716
H       -1.3558254373    0.2193377004   -1.7898664553
12   
Dihedral (-165, 60) Energy -193.681397570
C        1.6131838046   -0.2913258454    0.6132512575
C        0.6581206338    0.3867935311   -0.3656444237
H        1.5183850282    0.1339111716    1.6174564527
H        2.6534246894   -0.1721577875    0.2992847797
H        1.4022825868   -1.3625285348    0.6829379173
H        0.9061441650    1.4449952209   -0.4944889128
C       -0.8003600451    0.2542393437    0.0595861721
H        0.7706102825   -0.0814059422   -1.3527665621
H       -1.0330340244    0.9458512636    0.8733823356
H       -0.9826977479   -0.7654323956    0.4339944343
O       -1.7166007066    0.5716287341   -0.9884553711
H       -1.5385274576   -0.0489074433   -1.7146794232
12   
Dihedral (-165, 90) Energy -193.680290840
C        1.6208641041   -0.2954988932    0.6266200974
C        0.6974036678    0.4090357380   -0.3641107291
H        1.4955302291    0.1020336680    1.6390195641
H        2.6707208684   -0.1697482636    0.3491362937
H        1.4083748876   -1.3684019910    0.6610378584
H        0.9488658926    1.4704243576   -0.4536587440
C       -0.7733572352    0.2710949700    0.0135642682
H        0.8313854375   -0.0283112147   -1.3606953871
H       -1.0209178751    0.9439120387    0.8403937618
H       -0.9766537636   -0.7532068561    0.3581453411
O       -1.6420573300    0.6214777232   -1.0684028338
H       -1.8092211791   -0.1871514892   -1.5771898196
12   
Dihedral (-165, 120) Energy -193.678982164
C        1.6285323099   -0.2880500291    0.6465583928
C        0.7294885447    0.4122101718   -0.3693374501
H        1.4690568181    0.1025033199    1.6569221642
H        2.6848845752   -0.1501662295    0.4013901256
H        1.4265206062   -1.3633417868    0.6682540299
H        0.9773836434    1.4757428239   -0.4462252015
C       -0.7478675791    0.2606315812   -0.0350195322
H        0.8866581806   -0.0203995882   -1.3629878150
H       -1.0202683072    0.9038895999    0.8109361168
H       -0.9464820574   -0.7759715621    0.2700041347
O       -1.5545204494    0.6162698699   -1.1658579302
H       -2.0824498683   -0.1576643556   -1.4107740303
12   
Dihedral (-165, 150) Energy -193.680137248
C        1.6126194230   -0.3103940938    0.6905561923
C        0.7669882815    0.3091726294   -0.4189471589
H        1.4797920668    0.2208840862    1.6385891049
H        2.6760584946   -0.2789815177    0.4395023815
H        1.3364107330   -1.3568403546    0.8513106152
H        1.0899845827    1.3333851226   -0.6319006304
C       -0.7147462167    0.3047570716   -0.0837158988
H        0.8910058518   -0.2617658789   -1.3444797005
H       -0.9425326709    1.0555794667    0.6866671029
H       -0.9844332250   -0.6790120597    0.3272834285
O       -1.4521468179    0.5645280678   -1.2827227939
H       -2.3080914435    0.1143692216   -1.2083227267
12   
Dihedral (-165, 180) Energy -193.681500624
C        1.6231376428   -0.2912184248    0.7014492366
C        0.7681449769    0.2816981567   -0.4253782082
H        1.4580785352    0.2465586085    1.6407589268
H        2.6874744780   -0.2212864285    0.4623474803
H        1.3857629383   -1.3453531635    0.8724802826
H        1.0541641938    1.3142018323   -0.6493704237
C       -0.7145847834    0.2303937149   -0.1068242386
H        0.9239090025   -0.2970137982   -1.3416654100
H       -0.9709060736    0.9883129953    0.6484054393
H       -0.9654635113   -0.7549299673    0.3153497870
O       -1.4244707746    0.4483750191   -1.3276687694
H       -2.3743371887    0.4159435483   -1.1260608470
12   
Dihedral (-150, -150) Energy -193.678782817
C        1.6313537554   -0.3170457595    0.6821400701
C        0.7596314207    0.3150101178   -0.3993719437
H        1.4755132547    0.1605178161    1.6551722736
H        2.6928356938   -0.2274853779    0.4361627471
H        1.3982601103   -1.3801895330    0.7901298193
H        1.0396885288    1.3585036909   -0.5747549946
C       -0.7277106349    0.2194605844   -0.0856538811
H        0.9155706280   -0.2150602410   -1.3447689107
H       -1.0519908011    1.0767565299    0.5197811091
H       -0.9268951654   -0.6890191732    0.5022363228
O       -1.4419575298    0.1542727744   -1.3252016109
H       -2.3133910332    0.5599648426   -1.1920478623
12   
Dihedral (-150, -120) Energy -193.677879503
C        1.6372065175   -0.2960862205    0.6792483928
C        0.7355049430    0.2961291913   -0.4006150964
H        1.4858914677    0.1962067012    1.6456772745
H        2.6928108563   -0.1893596444    0.4154978778
H        1.4280180894   -1.3616444181    0.8106317801
H        0.9904431803    1.3432962417   -0.5965041985
C       -0.7469066086    0.1658704309   -0.0646252735
H        0.8909353267   -0.2457132107   -1.3391421102
H       -1.0854114596    1.0021267102    0.5601386619
H       -0.9084650030   -0.7533610784    0.5134218088
O       -1.5225675928    0.0587797920   -1.2663389277
H       -2.1465635605    0.7994381660   -1.2935621199
12   
Dihedral (-150, -90) Energy -193.679176133
C        1.6352216383   -0.2832745696    0.6641223287
C        0.7011951419    0.2845514124   -0.4017516683
H        1.5019994907    0.2223895818    1.6262129438
H        2.6831101182   -0.1711291626    0.3733276974
H        1.4388421735   -1.3485139660    0.8161001614
H        0.9472924568    1.3311391577   -0.6166440700
C       -0.7723023876    0.1472347425   -0.0219631900
H        0.8360034172   -0.2709564349   -1.3354191927
H       -1.0987617100    0.9718183524    0.6260589229
H       -0.9100519726   -0.7801435056    0.5440020174
O       -1.6204102612    0.0111040566   -1.1674318713
H       -1.8912656132    0.9015152535   -1.4427025137
12   
Dihedral (-150, -60) Energy -193.679996705
C        1.6267683999   -0.2894046676    0.6371266124
C        0.6604100102    0.2870778287   -0.3950500626
H        1.5199545462    0.2081789563    1.6064981671
H        2.6655634700   -0.1730730235    0.3169591192
H        1.4351349399   -1.3558855456    0.7846559715
H        0.9078557382    1.3325885833   -0.6152349170
C       -0.8002525480    0.1649421780    0.0373221494
H        0.7623887347   -0.2713685514   -1.3319660679
H       -1.0860755792    1.0009354239    0.6925735023
H       -0.9391617240   -0.7574930940    0.6084954267
O       -1.7012953968    0.0360718287   -1.0649003173
H       -1.6003654426    0.8331188310   -1.6126344894
12   
Dihedral (-150, -30) Energy -193.678209806
C        1.6153653919   -0.2973701800    0.6110791845
C        0.6295829137    0.3226757834   -0.3763742664
H        1.5329171546    0.1659591129    1.5993446577
H        2.6471564407   -0.1748071229    0.2713325502
H        1.4193499875   -1.3670345692    0.7238426782
H        0.8756925552    1.3742849804   -0.5631618811
C       -0.8223942967    0.1919480915    0.0818126073
H        0.7197796074   -0.2052262553   -1.3337631105
H       -1.0863441749    1.0227691063    0.7519808276
H       -0.9532376432   -0.7366704386    0.6464826138
O       -1.7516408168    0.1096904219   -1.0030094382
H       -1.3753036146    0.6094690895   -1.7457265066
12   
Dihedral (-150, 0) Energy -193.676462186
C        1.6025044903   -0.3117080123    0.5909423920
C        0.6226616675    0.3707337220   -0.3603725293
H        1.5283963073    0.1039643574    1.6006918771
H        2.6348934550   -0.1854853341    0.2543997827
H        1.3924125010   -1.3828074076    0.6524756061
H        0.8839975959    1.4243906735   -0.5044611946
C       -0.8287556865    0.2379508282    0.1019926533
H        0.7125437713   -0.1151076936   -1.3416031374
H       -1.0895448830    1.0552168654    0.7851189722
H       -0.9460730515   -0.7015727911    0.6578419011
O       -1.7767760475    0.2205473578   -0.9706854218
H       -1.2853343913    0.2995604720   -1.8024940957
12   
Dihedral (-150, 30) Energy -193.677554639
C        1.5953875942   -0.3262618875    0.5779052228
C        0.6358249229    0.4189285083   -0.3462734637
H        1.5204985097    0.0413452760    1.6061363811
H        2.6328182071   -0.2026915172    0.2560827324
H        1.3671022916   -1.3956025241    0.5877626258
H        0.9141220564    1.4735299203   -0.4390813534
C       -0.8231212231    0.2857469306    0.0968712052
H        0.7309129730   -0.0124892412   -1.3526546227
H       -1.1009604178    1.0861597575    0.7883167015
H       -0.9445535691   -0.6671291138    0.6351966809
O       -1.7600348988    0.3373800545   -0.9809805039
H       -1.3170761201   -0.0232342901   -1.7654259182
12   
Dihedral (-150, 60) Energy -193.678954922
C        1.5987811277   -0.3362797924    0.5754146726
C        0.6650164091    0.4569497681   -0.3354795113
H        1.5079957535   -0.0123618502    1.6171380869
H        2.6438718609   -0.2113832221    0.2797495022
H        1.3613505219   -1.4034583285    0.5368133105
H        0.9501846148    1.5130253955   -0.3702463899
C       -0.8062241494    0.3196625626    0.0674098759
H        0.7707299964    0.0798491606   -1.3608662858
H       -1.1013731757    1.1075403707    0.7644696561
H       -0.9561043157   -0.6427461696    0.5817528068
O       -1.7052058311    0.4294513243   -1.0369235461
H       -1.4780958543   -0.2845747339   -1.6553765778
12   
Dihedral (-150, 90) Energy -193.677845066
C        1.6094448197   -0.3367410951    0.5861584643
C        0.7017006680    0.4798561328   -0.3308859782
H        1.4888536470   -0.0422139890    1.6337938472
H        2.6627151981   -0.2037582340    0.3248231167
H        1.3756342503   -1.4030721465    0.5112607671
H        0.9834527852    1.5373892136   -0.3222064184
C       -0.7811130698    0.3300509376    0.0204985480
H        0.8294540703    0.1351211539   -1.3632268922
H       -1.0923135546    1.0992929594    0.7331489065
H       -0.9527858232   -0.6432577175    0.5025232412
O       -1.6297047162    0.4730036791   -1.1238535702
H       -1.7444124052   -0.4099944497   -1.5081782582
12   
Dihedral (-150, 120) Energy -193.676562839
C        1.6209225206   -0.3269838472    0.6049597534
C        0.7313058015    0.4842548758   -0.3344465654
H        1.4652445163   -0.0421396656    1.6507394248
H        2.6795760272   -0.1776891886    0.3762288919
H        1.4042318245   -1.3956443832    0.5141527979
H        1.0027195160    1.5444664724   -0.3106007143
C       -0.7560342065    0.3143092228   -0.0258133479
H        0.8833077884    0.1442902689   -1.3637386145
H       -1.0912457508    1.0547356811    0.7102963117
H       -0.9220269084   -0.6772575486    0.4170181321
O       -1.5409262391    0.4598220972   -1.2180542811
H       -2.0261468686   -0.3664898688   -1.3568905587
12   
Dihedral (-150, 150) Energy -193.677910110
C        1.5981102277   -0.3571271775    0.6662632913
C        0.7783047788    0.3690057546   -0.3975616274
H        1.4661051595    0.0964816429    1.6540897407
H        2.6651777890   -0.3294683627    0.4298642725
H        1.2953860793   -1.4060340773    0.7361335742
H        1.1381451954    1.3935502046   -0.5356445011
C       -0.7134745984    0.3714462680   -0.0818617145
H        0.8954907279   -0.1405550920   -1.3588337885
H       -0.9839773045    1.2295942313    0.5493798107
H       -0.9593146726   -0.5392960678    0.4833494647
O       -1.4438752713    0.3940920647   -1.3138896982
H       -2.2851640376   -0.0660098621   -1.1674607265
12   
Dihedral (-150, 180) Energy -193.679503285
C        1.6166987894   -0.3378302476    0.6775517616
C        0.7752019485    0.3427854420   -0.3986487263
H        1.4686463527    0.1273352100    1.6577036902
H        2.6824451306   -0.2786037492    0.4410602251
H        1.3484590056   -1.3946512749    0.7642307100
H        1.0952870840    1.3779307488   -0.5527433555
C       -0.7154814689    0.2954052495   -0.0922260927
H        0.9161799035   -0.1771496663   -1.3516761817
H       -1.0170739352    1.1550113999    0.5237982470
H       -0.9429368383   -0.6161103193    0.4817953109
O       -1.4124290113    0.2759015129   -1.3407568594
H       -2.3640845837    0.2456560460   -1.1462675704
12   
Dihedral (-135, -150) Energy -193.676427204
C        1.6263825107   -0.3656580772    0.6519078822
C        0.7662374521    0.3775122360   -0.3666776228
H        1.4831133018    0.0290298780    1.6630843080
H        2.6894683453   -0.2799403103    0.4106069746
H        1.3673952752   -1.4281656765    0.6675432902
H        1.0733728393    1.4254518818   -0.4429140547
C       -0.7306271125    0.2782719868   -0.0682022246
H        0.9154521949   -0.0652759311   -1.3563986093
H       -1.1023533754    1.2088645158    0.3807765040
H       -0.9174188574   -0.5284000929    0.6560670267
O       -1.4165310220   -0.0130024569   -1.2923304038
H       -2.3035887545    0.3770064511   -1.2396193797
12   
Dihedral (-135, -120) Energy -193.675420678
C        1.6346664276   -0.3470051827    0.6493542392
C        0.7420244543    0.3574734197   -0.3691090383
H        1.4987601114    0.0637756082    1.6551903217
H        2.6917637164   -0.2434017610    0.3895538735
H        1.3987856627   -1.4142717170    0.6893965397
H        1.0292270092    1.4096198855   -0.4721768702
C       -0.7494969928    0.2308787404   -0.0409382588
H        0.8822828740   -0.1039099595   -1.3514473433
H       -1.1323217063    1.1446917335    0.4298042261
H       -0.8976248509   -0.5851566032    0.6780330847
O       -1.5002120201   -0.1005095925   -1.2183930690
H       -2.1469506522    0.6035031895   -1.3754344639
12   
Dihedral (-135, -90) Energy -193.676762924
C        1.6321600367   -0.3350596829    0.6343743518
C        0.7076811978    0.3518154526   -0.3680770056
H        1.5129413367    0.0816109342    1.6398541329
H        2.6819502535   -0.2209415109    0.3505728445
H        1.4094857238   -1.4045858863    0.6866586367
H        0.9851256393    1.4056480382   -0.4861535849
C       -0.7750216024    0.2127981484    0.0023830127
H        0.8284732938   -0.1201555891   -1.3483114978
H       -1.1519889020    1.1129841565    0.5053799555
H       -0.8949828712   -0.6191738478    0.7040708370
O       -1.5930145014   -0.1367947311   -1.1204628832
H       -1.8918905768    0.6875463992   -1.5364568242
12   
Dihedral (-135, -60) Energy -193.677560806
C        1.6220499709   -0.3344895404    0.6070965628
C        0.6667325417    0.3646947785   -0.3577309459
H        1.5287826781    0.0678390401    1.6209135617
H        2.6630991945   -0.2126269530    0.2957659679
H        1.4030533444   -1.4050209466    0.6494394842
H        0.9379064073    1.4210786759   -0.4661903309
C       -0.8043245942    0.2199956845    0.0561188118
H        0.7673841563   -0.0959100533   -1.3466599349
H       -1.1574694873    1.1218984717    0.5765774959
H       -0.9156676357   -0.6175924744    0.7504970835
O       -1.6669453658   -0.1151199879   -1.0342374765
H       -1.5936817556    0.6009428582   -1.6877492178
12   
Dihedral (-135, -30) Energy -193.675610684
C        1.6058099794   -0.3432567563    0.5770612042
C        0.6375566297    0.3971964547   -0.3431458054
H        1.5335858703    0.0250205825    1.6051655351
H        2.6417216945   -0.2173496982    0.2506408066
H        1.3786774541   -1.4126892964    0.5866134364
H        0.9134206319    1.4542988725   -0.4201676653
C       -0.8260607093    0.2511810190    0.0970932103
H        0.7301762762   -0.0308324334   -1.3490596005
H       -1.1550388459    1.1540713833    0.6308659944
H       -0.9295499096   -0.5899485772    0.7898313861
O       -1.7230266549   -0.0391824589   -0.9797326017
H       -1.3563516476    0.3671778966   -1.7813216041
12   
Dihedral (-135, 0) Energy -193.673759478
C        1.5890669456   -0.3565956083    0.5526195237
C        0.6310040880    0.4415156126   -0.3286050813
H        1.5245166630   -0.0348596305    1.5965322000
H        2.6260014934   -0.2310964698    0.2292935396
H        1.3457780141   -1.4218844886    0.5146535417
H        0.9235833822    1.4958711989   -0.3597300850
C       -0.8339238134    0.2971834051    0.1118064881
H        0.7276303313    0.0658270824   -1.3563052701
H       -1.1606052355    1.1900784325    0.6576739057
H       -0.9249643697   -0.5536038235    0.7995902021
O       -1.7517547413    0.0706055521   -0.9639308065
H       -1.2454118661    0.0526443135   -1.7897532204
12   
Dihedral (-135, 30) Energy -193.675012385
C        1.5802778446   -0.3682520504    0.5342861256
C        0.6420898904    0.4863488388   -0.3141202607
H        1.5175555329   -0.0910548505    1.5909954433
H        2.6209846063   -0.2492068526    0.2206865505
H        1.3189121275   -1.4270999012    0.4514279765
H        0.9479387240    1.5370290573   -0.2841930241
C       -0.8310048339    0.3400658900    0.1021467679
H        0.7426255130    0.1782364013   -1.3633531394
H       -1.1765587124    1.2181423626    0.6542686476
H       -0.9295234581   -0.5257568177    0.7748411275
O       -1.7335152999    0.1822866040   -0.9958074567
H       -1.2488666655   -0.2650326999   -1.7073331289
12   
Dihedral (-135, 60) Energy -193.676629681
C        1.5845949818   -0.3747311889    0.5274290486
C        0.6688557772    0.5225904726   -0.3017123841
H        1.5023357414   -0.1460273741    1.5945446458
H        2.6324013639   -0.2492442171    0.2410812683
H        1.3215427052   -1.4283340207    0.3925367951
H        0.9782639699    1.5689414141   -0.2131213229
C       -0.8159608645    0.3700453044    0.0700121962
H        0.7772046138    0.2681209068   -1.3628046962
H       -1.1783461889    1.2369779167    0.6268678079
H       -0.9461597677   -0.5095944180    0.7195031814
O       -1.6779295897    0.2706616693   -1.0655654670
H       -1.3958865140   -0.5137008028   -1.5649220349
12   
Dihedral (-135, 90) Energy -193.675612621
C        1.5989235631   -0.3716406513    0.5351155933
C        0.7027473607    0.5451340657   -0.2949455593
H        1.4843844381   -0.1766531005    1.6061963491
H        2.6541510247   -0.2324791695    0.2843782030
H        1.3473382246   -1.4222758267    0.3597017342
H        1.0015997624    1.5897893348   -0.1612567457
C       -0.7919149982    0.3747463112    0.0232416199
H        0.8342480369    0.3220236181   -1.3588266191
H       -1.1683536403    1.2266223879    0.5960937895
H       -0.9464976042   -0.5206912812    0.6418918391
O       -1.6019802216    0.3075281930   -1.1565856298
H       -1.6637390516   -0.6264018129   -1.4111513023
12   
Dihedral (-135, 120) Energy -193.674360795
C        1.6148904618   -0.3595453683    0.5523681830
C        0.7292292656    0.5501468907   -0.2965937745
H        1.4665349795   -0.1761822319    1.6214818353
H        2.6744352290   -0.2008877976    0.3333922504
H        1.3852065553   -1.4118312829    0.3588091146
H        1.0108989126    1.5977023476   -0.1484848561
C       -0.7673974665    0.3547156882   -0.0188318282
H        0.8851099112    0.3302142744   -1.3568667172
H       -1.1669564320    1.1805301653    0.5810829970
H       -0.9171344076   -0.5648436158    0.5626607840
O       -1.5099212011    0.2877813394   -1.2459833524
H       -1.9539895707   -0.5720970362   -1.2791865379
12   
Dihedral (-135, 150) Energy -193.675777181
C        1.5820835741   -0.4035389809    0.6339661883
C        0.7880430892    0.4315772725   -0.3677665462
H        1.4476670130   -0.0356900472    1.6563439476
H        2.6523151658   -0.3786851296    0.4110303875
H        1.2560845720   -1.4475183635    0.6075854427
H        1.1684654337    1.4577055917   -0.3934694642
C       -0.7160921212    0.4238727557   -0.0837172762
H        0.9192915996    0.0200492166   -1.3727966760
H       -1.0375764379    1.3609682194    0.3913816936
H       -0.9496648195   -0.3911449095    0.6162271345
O       -1.4161425127    0.2213926778   -1.3182670707
H       -2.2435755034   -0.2432970688   -1.1166800626
12   
Dihedral (-135, 180) Energy -193.677349019
C        1.6066061049   -0.3848171878    0.6462082353
C        0.7827849694    0.4058086663   -0.3667593367
H        1.4643644492   -0.0043396048    1.6628954991
H        2.6745400253   -0.3290023409    0.4179520062
H        1.3137685188   -1.4386551896    0.6384639765
H        1.1253453873    1.4441109460   -0.4157602466
C       -0.7182768083    0.3499929592   -0.0836163327
H        0.9277277864   -0.0211683608   -1.3639245972
H       -1.0699143654    1.2845549571    0.3762970376
H       -0.9336992462   -0.4640743971    0.6252714503
O       -1.3838916643    0.1044155524   -1.3264805004
H       -2.3384570363    0.0688740649   -1.1467121964
12   
Dihedral (-120, -150) Energy -193.675078295
C        1.6244353530   -0.3965557900    0.6097422775
C        0.7647091470    0.4567903314   -0.3191760798
H        1.4766410212   -0.1152011386    1.6571033123
H        2.6882126627   -0.2841232425    0.3820279084
H        1.3664680031   -1.4546126774    0.5068587489
H        1.0610504533    1.5080164740   -0.2389631776
C       -0.7384740130    0.3049114589   -0.0567145657
H        0.9334980868    0.1611934068   -1.3586497391
H       -1.1788251722    1.2662140924    0.2390075390
H       -0.9141860135   -0.3997862228    0.7690944201
O       -1.3620180626   -0.1854093436   -1.2514163402
H       -2.2706030355    0.1542470948   -1.2750864461
12   
Dihedral (-120, -120) Energy -193.673936314
C        1.6336029301   -0.3800422906    0.6079995345
C        0.7412017254    0.4362524611   -0.3235317195
H        1.4976716416   -0.0791801289    1.6516199184
H        2.6910937676   -0.2523116659    0.3600691704
H        1.3944624376   -1.4448075687    0.5323470236
H        1.0237796136    1.4939398118   -0.2752668002
C       -0.7562358921    0.2621284485   -0.0246185321
H        0.8945089219    0.1155052218   -1.3579336538
H       -1.2064856336    1.2103744091    0.2930812297
H       -0.8926047241   -0.4482573357    0.8004534927
O       -1.4456966799   -0.2679006440   -1.1673494204
H       -2.1243881499    0.3699822669   -1.4330487433
12   
Dihedral (-120, -90) Energy -193.675314078
C        1.6292241594   -0.3701682251    0.5926651643
C        0.7074605980    0.4297037572   -0.3247026989
H        1.5169007339   -0.0569954439    1.6354404801
H        2.6794442294   -0.2396356950    0.3169664974
H        1.3938252491   -1.4368667521    0.5355076111
H        0.9866538767    1.4894331028   -0.2971589175
C       -0.7813777164    0.2487638491    0.0209603477
H        0.8387026283    0.0932436088   -1.3577724853
H       -1.2278234041    1.1884603014    0.3712608050
H       -0.8876870369   -0.4770350961    0.8334404383
O       -1.5374905484   -0.2982561948   -1.0666103721
H       -1.8669234463    0.4450321832   -1.5961752623
12   
Dihedral (-120, -60) Energy -193.676129129
C        1.6152889529   -0.3712638422    0.5636609597
C        0.6677048947    0.4399483041   -0.3172747754
H        1.5340621050   -0.0659030241    1.6113937167
H        2.6572266866   -0.2411933630    0.2580371270
H        1.3739001374   -1.4363552649    0.5042490201
H        0.9477609671    1.4989280834   -0.2841250996
C       -0.8106560917    0.2605260312    0.0731205181
H        0.7791466022    0.1140619248   -1.3572647279
H       -1.2346984202    1.2064786101    0.4395277166
H       -0.9067426114   -0.4696572006    0.8811877282
O       -1.6140851354   -0.2726104036   -0.9834532682
H       -1.5579925467    0.3527205922   -1.7252336691
12   
Dihedral (-120, -30) Energy -193.674114662
C        1.5915478115   -0.3870799551    0.5342890488
C        0.6426444662    0.4640166499   -0.3069738298
H        1.5410099816   -0.1004609860    1.5888943095
H        2.6287226823   -0.2737881593    0.2066421438
H        1.3240641288   -1.4449009571    0.4601823212
H        0.9401577951    1.5164345714   -0.2506907894
C       -0.8316374788    0.3039165082    0.1074243400
H        0.7466405825    0.1684654166   -1.3584458883
H       -1.2245642215    1.2602073204    0.4807918187
H       -0.9249471398   -0.4226375733    0.9204001898
O       -1.6776068785   -0.1863918944   -0.9380803898
H       -1.3051119628    0.1179191894   -1.7805958616
12   
Dihedral (-120, 0) Energy -193.672424616
C        1.5718020850   -0.3998769985    0.5053346237
C        0.6358437586    0.5026559373   -0.2950305384
H        1.5219820187   -0.1625535787    1.5719277126
H        2.6108869396   -0.2828924943    0.1851016083
H        1.2935649516   -1.4506070834    0.3828537149
H        0.9515431273    1.5458565991   -0.1907110265
C       -0.8405752467    0.3506773583    0.1167965809
H        0.7404473132    0.2679225131   -1.3625781265
H       -1.2309254812    1.3010765747    0.4990229552
H       -0.9235181770   -0.3825592850    0.9291612356
O       -1.7077789436   -0.0793165688   -0.9395507701
H       -1.1723487931   -0.1946860273   -1.7384877703
12   
Dihedral (-120, 30) Energy -193.674031379
C        1.5609195854   -0.4101065573    0.4818784232
C        0.6454830808    0.5431369724   -0.2821358277
H        1.5058304691   -0.2223800973    1.5580521366
H        2.6042014285   -0.2937637150    0.1754082543
H        1.2723670636   -1.4518203337    0.3108879120
H        0.9752164527    1.5746269987   -0.1183250697
C       -0.8382885515    0.3931032079    0.1032820668
H        0.7474372575    0.3741103627   -1.3614068425
H       -1.2448182476    1.3318268199    0.4886948311
H       -0.9334616918   -0.3549633879    0.9047190201
O       -1.6876645496    0.0292529813   -0.9895287272
H       -1.1563015624   -0.4973248036   -1.6076750128
12   