4    
Dihedral (-165,) Energy -151.533557152
H       -0.9589140471   -0.3290544054   -0.8488032189
O       -0.7283897915   -0.1553038011    0.0800983742
O        0.7305999310   -0.1513483627   -0.0641636007
H        0.9631369355   -0.2286252795    0.8771964326
4    
Dihedral (-150,) Energy -151.533922085
H       -0.9495212258   -0.3908566948   -0.8320190870
O       -0.7285004566   -0.0941083140    0.0677530383
O        0.7297907575   -0.0893512049   -0.0582036214
H        0.9546641560   -0.2900156487    0.8667975964
4    
Dihedral (-135,) Energy -151.534338700
H       -0.9350412612   -0.4506626401   -0.8066830243
O       -0.7284262680   -0.0364245387    0.0494465463
O        0.7285833842   -0.0283756539   -0.0462090509
H        0.9413174141   -0.3488690339    0.8477735027
4    
Dihedral (-120,) Energy -151.534555259
H       -0.9146379110   -0.5060294920   -0.7753103226
O       -0.7282948994    0.0184572582    0.0237819729
O        0.7270020088    0.0287987704   -0.0267979933
H        0.9223641593   -0.4055584771    0.8226542979
4    
Dihedral (-105,) Energy -151.534325618
H       -0.8952113395   -0.5579103721   -0.7326082876
O       -0.7275214005    0.0682305056   -0.0049017269
O        0.7250480019    0.0824611645   -0.0048648462
H        0.9041180878   -0.4571131742    0.7867027370
4    
Dihedral (-90,) Energy -151.533387028
H       -0.8758900961   -0.5997324206   -0.6860297115
O       -0.7257754103    0.1138710174   -0.0383992721
O        0.7232555943    0.1299659335    0.0247205281
H        0.8848433158   -0.5084364310    0.7440363415
4    
Dihedral (-75,) Energy -151.531584683
H       -0.8562197106   -0.6382423615   -0.6366577665
O       -0.7239384246    0.1517203787   -0.0794366824
O        0.7196327954    0.1730645622    0.0615169694
H        0.8669585525   -0.5508744744    0.6989053363
4    
Dihedral (-60,) Energy -151.529009871
H       -0.8425184351   -0.6680824481   -0.5867388717
O       -0.7188913461    0.1835158258   -0.1266046247
O        0.7148899555    0.2084327836    0.1056337135
H        0.8529530361   -0.5881980059    0.6520376999
4    
Dihedral (-45,) Energy -151.526023367
H       -0.8378179588   -0.6901057339   -0.5371044124
O       -0.7103476352    0.2079896087   -0.1782369110
O        0.7069850828    0.2359339920    0.1549128478
H        0.8476135127   -0.6181496363    0.6047563884
4    
Dihedral (-30,) Energy -151.523206123
H       -0.8409957973   -0.7050171750   -0.4909131385
O       -0.6973426467    0.2243198014   -0.2335202441
O        0.6944245867    0.2562147739    0.2088010291
H        0.8503469957   -0.6398491672    0.5599603133
4    
Dihedral (-15,) Energy -151.521180924
H       -0.8525500249   -0.7125678213   -0.4466294736
O       -0.6786592218    0.2332087127   -0.2890683620
O        0.6768558457    0.2688256771    0.2630777410
H        0.8607864436   -0.6537983848    0.5169480588
4    
Dihedral (0,) Energy -151.520432605
H       -0.8707254149   -0.7139467775   -0.4039231027
O       -0.6554917634    0.2341835917   -0.3415712318
O        0.6536570055    0.2749334998    0.3155207086
H        0.8789932026   -0.6595021042    0.4743015283
4    
Dihedral (15,) Energy -151.521160585
H       -0.8931916844   -0.7111292902   -0.3634253361
O       -0.6280701553    0.2260512971   -0.3922092558
O        0.6241994129    0.2758514242    0.3648093379
H        0.9034953510   -0.6551051694    0.4351532119
4    
Dihedral (30,) Energy -151.523188231
H       -0.9198646351   -0.7017030200   -0.3288005441
O       -0.5952270087    0.2107629768   -0.4404309959
O        0.5894131993    0.2696599763    0.4123107469
H        0.9321112536   -0.6430516735    0.4012487157
4    
Dihedral (45,) Energy -151.526022734
H       -0.9544020479   -0.6823326104   -0.3018877392
O       -0.5579018458    0.1901804074   -0.4836240306
O        0.5524086162    0.2536144280    0.4567902603
H        0.9663280379   -0.6257938480    0.3730492701
4    
Dihedral (60,) Energy -151.529013250
H       -0.9972100398   -0.6535732323   -0.2806014411
O       -0.5205504768    0.1637371723   -0.5192196025
O        0.5168037141    0.2280571716    0.4957828116
H        1.0073896239   -0.6025526938    0.3483659540
4    
Dihedral (75,) Energy -151.531583922
H       -0.8714084377    0.1205869702   -0.6660288985
O       -0.7170420292   -0.6049683880   -0.0321612201
O        0.7280515696   -0.5842470812    0.0924362107
H        0.8668323026    0.2042965937    0.6500820088
4    
Dihedral (90,) Energy -151.533388652
H       -0.8901327052    0.0781587488   -0.7106959960
O       -0.7201654688   -0.5620923497    0.0050373902
O        0.7295190987   -0.5461710500    0.0511676648
H        0.8872125191    0.1657727287    0.6988190167
4    
Dihedral (105,) Energy -151.534325631
H       -0.9099739697    0.0271059952   -0.7532152881
O       -0.7216539240   -0.5144545077    0.0348434605
O        0.7308099847   -0.5006453050    0.0177440924
H        0.9072512404    0.1236618585    0.7449558823
4    
Dihedral (120,) Energy -151.534556065
H       -0.9285194453   -0.0239693109   -0.7891454395
O       -0.7233714987   -0.4607023690    0.0567837176
O        0.7310979547   -0.4509440545   -0.0107706584
H        0.9272261668    0.0712838470    0.7874604821
4    
Dihedral (135,) Energy -151.534339893
H       -0.9427879236   -0.0801899838   -0.8198243696
O       -0.7252067711   -0.4030598681    0.0721577182
O        0.7311931722   -0.3965312037   -0.0319680776
H        0.9432345814    0.0154491803    0.8239627503
4    
Dihedral (150,) Energy -151.533922215
H       -0.9543924754   -0.1431516956   -0.8414417766
O       -0.7262139643   -0.3437241286    0.0827887416
O        0.7316985504   -0.3371540813   -0.0480634231
H        0.9553409431   -0.0403019521    0.8510444037
4    
Dihedral (165,) Energy -151.533556957
H       -0.9627965038   -0.2065169689   -0.8525559752
O       -0.7272439597   -0.2821201421    0.0882025705
O        0.7318038995   -0.2755428879   -0.0596766278
H        0.9646697251   -0.1001518489    0.8683578834
4    
Dihedral (180,) Energy -151.533412144
H       -0.9636435283   -0.2685297025   -0.8549257508
O       -0.7278443707   -0.2187337197    0.0874171667
O        0.7310797608   -0.2134320632   -0.0652537772
H        0.9668412091   -0.1636363598    0.8770902739
