47   
Dihedral (-165,) Energy -1346.049809490
H       18.5967264877   16.8364232526   18.8935024172
C       18.7119465709   17.6911490286   19.5487997566
H       19.5865586423   17.5457696752   20.1723914886
H       17.8267968406   17.7820115542   20.1646730710
O       18.8616186728   18.8084316968   18.7192968663
C       18.8523012031   20.0276913891   19.3311856628
C       17.5063977173   20.3383947776   20.2115555915
O       16.4123139362   19.9653821248   19.7076079346
O       17.6230008060   20.8935658229   21.3310259261
C       19.0015421204   21.1314839341   18.2532853122
H       18.0712983844   21.2417288922   17.7131588600
H       19.7794712298   20.8136846244   17.5592574237
C       19.3981412178   22.4742479320   18.8922023662
H       18.5433858709   22.8291847617   19.4573272887
O       19.5758330857   23.4609584022   17.8902547004
H       20.0558724761   23.0848614451   17.1656863290
C       20.5405244470   22.4198507197   19.8074454143
H       21.4457266166   22.1086604827   19.3102749487
N       20.7831382267   23.7160831128   20.4226202916
H       20.1418761499   24.0070852630   21.1255967236
C       21.6999072694   24.6042677583   19.9911422725
C       21.7926121899   25.8822430079   20.8064193369
H       22.6233233055   25.7971760224   21.5003085736
H       20.8937914529   26.0942460217   21.3739257344
H       21.9986558926   26.7050681770   20.1355668863
O       22.4236699306   24.4255509977   19.0469113448
C       20.1335258326   21.3893382886   20.8827743209
H       19.2357700959   21.6771709180   21.3834448026
O       19.9625027756   20.1138228458   20.2344746454
C       21.2514999589   21.1897949383   21.9225800289
H       21.2377016159   22.0259713639   22.6144176544
O       22.5315004624   21.0984759687   21.3286013869
H       22.8934899745   21.9665483072   21.2327456111
C       21.0250927189   19.9278572437   22.7663757184
H       20.5285857169   19.1791194664   22.1729524840
O       20.2053676936   20.3338127024   23.8435661332
H       19.6596590966   19.6113945988   24.1172067091
C       22.3077869971   19.3231718579   23.3374633272
H       23.0915183539   20.0476902904   23.4808559118
H       22.0852445059   18.8608074928   24.2909538593
O       22.7517209604   18.3057837999   22.4444038165
C       23.8897475969   17.7011769976   22.6997233598
O       24.6048851036   17.9602943940   23.6178837832
C       24.1690572099   16.6097187199   21.6983089767
H       23.6556277836   15.7071328864   22.0156321371
H       25.2311537415   16.4098542073   21.6701400863
H       23.8030429332   16.8829106706   20.7182659801
47   
Dihedral (-150,) Energy -1346.044051910
H       18.1623406235   16.8840741697   19.0439783807
C       18.3248848042   17.7534901789   19.6691354282
H       19.1531252430   17.5565625858   20.3404411912
H       17.4253948770   17.9502473057   20.2375275932
O       18.6132006213   18.8147887809   18.8043351112
C       18.6871849187   20.0566961486   19.3649876732
C       17.3356740634   20.5232855692   20.1642102457
O       16.2367760592   20.2255285121   19.6220987154
O       17.4505210085   21.1309026336   21.2562893098
C       18.9841275626   21.0938670805   18.2520629123
H       18.0931712305   21.2602961081   17.6623775783
H       19.7613915996   20.6782318392   17.6108861500
C       19.4699411569   22.4238750040   18.8550430739
H       18.6247038597   22.8762709976   19.3616158390
O       19.7811056618   23.3455679008   17.8240838558
H       20.2581692598   22.8968796784   17.1400248770
C       20.5596845999   22.3104420332   19.8272881696
H       21.4624644846   21.9098274477   19.3964444561
N       20.8702378021   23.6136273621   20.4013803705
H       20.1990558415   23.9967099305   21.0284806206
C       21.8779566443   24.4092226803   19.9885562406
C       22.0211350639   25.7135769009   20.7543884489
H       22.8020444321   25.6006464517   21.5003792731
H       21.1103090575   26.0175408016   21.2574043362
H       22.3274597249   26.4871551686   20.0635724372
O       22.6382600752   24.1352023579   19.0986349364
C       20.0129910868   21.3686889019   20.9218946024
H       19.1184670046   21.7488880195   21.3602124574
O       19.7580707555   20.0853977962   20.3180232893
C       21.0696816052   21.1347130004   22.0367142638
H       20.9142105846   21.8736866936   22.8163886351
O       22.3990721348   21.2431601683   21.5600326399
H       22.6768248427   22.1445963152   21.6078110442
C       20.9520616186   19.7596999435   22.7114345659
H       20.6142321420   19.0293843962   21.9975540131
O       20.0125212881   19.9201025104   23.7543817234
H       19.5501514974   19.1075998051   23.8966948509
C       22.2594069284   19.2608855206   23.3293707537
H       22.9216408990   20.0555949801   23.6272576715
H       22.0268847481   18.6602084083   24.1997775806
O       22.9100724273   18.4233469856   22.3773225353
C       24.0977207147   17.9459116125   22.6722063618
O       24.6918920944   18.1870212628   23.6773523994
C       24.6078720470   17.0261575298   21.5921390754
H       24.2029274092   16.0329745561   21.7612366418
H       25.6863039759   16.9718428004   21.6449731236
H       24.2875868944   17.3626741828   20.6157887368
47   
Dihedral (-135,) Energy -1346.038442740
H       17.7560654724   16.9686453089   19.1715786906
C       17.9751199265   17.8435362213   19.7712882287
H       18.7669455807   17.6033872071   20.4722241315
H       17.0820304057   18.1339110578   20.3085382325
O       18.3718413242   18.8460914729   18.8798858210
C       18.5346182292   20.0963163992   19.4028318463
C       17.2071979091   20.6974694885   20.1509055439
O       16.1010611583   20.4738517105   19.5882532732
O       17.3461852629   21.3374749942   21.2214663634
C       18.9437918253   21.0696903568   18.2680983502
H       18.0842977357   21.2887410965   17.6495464773
H       19.6995443668   20.5714860574   17.6607341656
C       19.5232152966   22.3738211355   18.8443208357
H       18.7058239714   22.9076970402   19.3157714475
O       19.9322884565   23.2345473175   17.7957381155
H       20.3874367083   22.7279962234   17.1376863425
C       20.5755691595   22.2022750594   19.8487070299
H       21.4619496375   21.7286766581   19.4593705883
N       20.9586637450   23.5069083186   20.3777686437
H       20.2805815002   23.9803731982   20.9317014585
C       22.0359110455   24.2054591121   19.9626373434
C       22.2493450399   25.5326854691   20.6716108622
H       22.9966778411   25.4009538224   21.4485308688
H       21.3479941666   25.9252456809   21.1286301681
H       22.6327949748   26.2483819434   19.9573050037
O       22.8017428264   23.8363048637   19.1138496147
C       19.9259404657   21.3438708026   20.9555316285
H       19.0516705038   21.8113299656   21.3444715803
O       19.5804401057   20.0672903570   20.3832966530
C       20.9159155513   21.0512524267   22.1325289216
H       20.6102051514   21.6453721492   22.9880260532
O       22.2618204818   21.3631878941   21.8208622173
H       22.4269495534   22.2690426993   22.0261879755
C       20.9125241425   19.5897492946   22.6094851008
H       20.7443833769   18.9292498856   21.7774390112
O       19.8729709474   19.4879475885   23.5586322327
H       19.5097751116   18.6151101868   23.5427420145
C       22.2125919779   19.1677692404   23.2978428878
H       22.7340718675   19.9840198236   23.7672586053
H       21.9816988530   18.4262375347   24.0523560393
O       23.0537158827   18.5549631401   22.3232788952
C       24.2618268565   18.1854243047   22.6828913786
O       24.7235824571   18.3521611515   23.7693576814
C       24.9871835454   17.4930524881   21.5571005071
H       24.7035760828   16.4449298091   21.5531165440
H       26.0536929308   17.5604210218   21.7206125548
H       24.7176870202   17.9227429843   20.6021977520
47   
Dihedral (-120,) Energy -1346.034872840
H       17.3833963430   17.0753428255   19.2858016212
C       17.6609353854   17.9481875826   19.8639065170
H       18.4217013366   17.6709066647   20.5851574405
H       16.7861818953   18.3217963348   20.3790388399
O       18.1461230139   18.8909860507   18.9510661519
C       18.3966051606   20.1390716970   19.4439709046
C       17.1088379099   20.8586492267   20.1559454032
O       15.9969332878   20.7064581597   19.5809436724
O       17.2816903968   21.5143623942   21.2119696737
C       18.8956986169   21.0495992014   18.2931688429
H       18.0644033709   21.3172414039   17.6553891630
H       19.6197052489   20.4801242227   17.7100256577
C       19.5655000513   22.3194829093   18.8474994367
H       18.7847759729   22.9238915103   19.2952208170
O       20.0511371263   23.1210579268   17.7858392563
H       20.4756255001   22.5663141595   17.1464795351
C       20.5870427797   22.0929449609   19.8725844810
H       21.4465513330   21.5524836657   19.5082543661
N       21.0481089649   23.3892698368   20.3572150418
H       20.3858462333   23.9400735797   20.8557813104
C       22.1785881313   23.9889436507   19.9328176189
C       22.4767692309   25.3279647856   20.5866819485
H       23.2008026774   25.1753137578   21.3816204709
H       21.5997158670   25.8046925703   21.0102924391
H       22.9222526677   25.9826032161   19.8500747616
O       22.9297970464   23.5294475231   19.1152266699
C       19.8574832543   21.3147391694   20.9888616173
H       19.0162650507   21.8648633894   21.3393869418
O       19.4229506500   20.0544935038   20.4416475111
C       20.7768147247   20.9534733912   22.2103987254
H       20.3254723523   21.3702362066   23.1053315538
O       22.0957436477   21.4504978917   22.0894765408
H       22.1340888363   22.3262993312   22.4376926348
C       20.9050644818   19.4445304484   22.4821559223
H       20.8958137893   18.8974954215   21.5548534297
O       19.8076033480   19.0868151505   23.2909261714
H       19.5609692151   18.1915953333   23.1136880992
C       22.1825018143   19.0699860999   23.2376598269
H       22.5551682387   19.8587029111   23.8683348615
H       21.9818133642   18.2020248270   23.8530944114
O       23.1746360209   18.7090045820   22.2791639202
C       24.3841018510   18.4251899607   22.7063997629
O       24.7258797510   18.4753190054   23.8474636748
C       25.2845545219   17.9968791290   21.5756768132
H       25.1358555165   16.9365538306   21.3949780228
H       26.3161277876   18.1564869473   21.8568885933
H       25.0472852170   18.5346572674   20.6681446992
47   
Dihedral (-105,) Energy -1346.033964400
H       17.0086870835   17.2084073355   19.3680514970
C       17.3513116073   18.0665747598   19.9332357529
H       18.0832321981   17.7477200585   20.6656574247
H       16.5057528860   18.5161965014   20.4359531405
O       17.9127726437   18.9530099742   19.0065981572
C       18.2578488742   20.1854666315   19.4805943081
C       17.0266702781   21.0137225742   20.1743056011
O       15.9088324618   20.9391435988   19.5955158355
O       17.2436689783   21.6650681016   21.2248700056
C       18.8310734947   21.0364420907   18.3188050413
H       18.0258560919   21.3568400715   17.6718890233
H       19.5116991753   20.4037325504   17.7485089068
C       19.5949156319   22.2591452718   18.8573801252
H       18.8625448770   22.9294605227   19.2926057954
O       20.1446529598   23.0026177117   17.7857328306
H       20.5269461883   22.4062804097   17.1573458811
C       20.5913276870   21.9702347157   19.8914797550
H       21.4078252027   21.3598751583   19.5344076174
N       21.1504170215   23.2390266523   20.3374481713
H       20.5505485720   23.8391603636   20.8562571960
C       22.3206875551   23.7355184027   19.8999010909
C       22.7234795326   25.0637732515   20.5174386676
H       23.4311671904   24.8730361964   21.3185908133
H       21.8865312012   25.6208836782   20.9242869297
H       23.2208264118   25.6607624424   19.7651236689
O       23.0358113232   23.1947919051   19.0975121615
C       19.7987460963   21.2684817070   21.0154428937
H       19.0036934946   21.8977473414   21.3416096018
O       19.2701783771   20.0372700050   20.4851458910
C       20.6431082382   20.8381138532   22.2649318615
H       20.0570804945   21.0637849974   23.1505225706
O       21.8888975168   21.4982147932   22.3465963423
H       21.7851731328   22.3130668701   22.8115422377
C       20.9287959867   19.3275032655   22.3468692172
H       21.0609953834   18.9239327427   21.3547335356
O       19.8247629218   18.7279745194   22.9811418752
H       19.7169141294   17.8472831353   22.6556981616
C       22.1827757361   18.9909646278   23.1570976619
H       22.4018709844   19.7123364536   23.9257520830
H       22.0511003044   18.0217108616   23.6213476128
O       23.2798084692   18.9015198963   22.2514253765
C       24.4823321573   18.6971311010   22.7404672062
O       24.7310457642   18.6083148077   23.9030057369
C       25.5087976151   18.5596953653   21.6451422518
H       25.5122425597   17.5306011241   21.2986540678
H       26.4882730700   18.7928211148   22.0388580827
H       25.2692439400   19.2016987785   20.8087174363
47   
Dihedral (-90,) Energy -1346.036383170
H       16.6219589452   17.3750382714   19.4118842535
C       17.0396221735   18.2026450036   19.9724186284
H       17.7544906946   17.8323073432   20.6964432025
H       16.2371229656   18.7171827750   20.4835775339
O       17.6551427503   19.0441156498   19.0356568646
C       18.1020431422   20.2434987625   19.5072822121
C       16.9510295168   21.1625503086   20.2239103513
O       15.8225378632   21.1811448194   19.6615209561
O       17.2304487807   21.7766108204   21.2821539730
C       18.7244269031   21.0538564943   18.3417528044
H       17.9385437702   21.4416790459   17.7081159441
H       19.3448466825   20.3731709798   17.7580813850
C       19.5910823922   22.2081834111   18.8755679711
H       18.9238460754   22.9358771637   19.3233123397
O       20.1855166879   22.9073613257   17.7984378557
H       20.5077626774   22.2839591889   17.1627183203
C       20.5761509069   21.8338895834   19.8930218956
H       21.3176938322   21.1473594327   19.5063768293
N       21.2766492404   23.0333023998   20.3164131635
H       20.8172264335   23.6308451771   20.9627247918
C       22.4718299371   23.4116131553   19.8413236043
C       23.0332615561   24.6824775105   20.4546570421
H       23.7393983748   24.4081276295   21.2322773333
H       22.2728631441   25.3219241335   20.8895269150
H       23.5683291674   25.2300056973   19.6905915821
O       23.1022841341   22.8046885885   19.0127500749
C       19.7464865504   21.1900064011   21.0248379157
H       19.0096141375   21.8875087077   21.3533913821
O       19.1137723305   20.0083979972   20.4957298966
C       20.5181515922   20.6933240416   22.2807913325
H       19.8110015719   20.7105954915   23.1046985540
O       21.6253249785   21.5120612208   22.5879417502
H       21.3413048181   22.2197024483   23.1462033055
C       20.9946187896   19.2314497474   22.1947153205
H       21.2625310506   19.0005724552   21.1716406612
O       19.9383921828   18.4042556408   22.6121481857
H       19.9938886412   17.5772117233   22.1581662634
C       22.2211028800   18.9407119800   23.0618637286
H       22.2755223561   19.5576186404   23.9430574677
H       22.2021791787   17.9023131294   23.3681847547
O       23.3757510796   19.1473322431   22.2541905222
C       24.5629227580   19.0335968048   22.8075404051
O       24.7471749613   18.7944689282   23.9607065379
C       25.6628365940   19.2184957479   21.7937977342
H       25.8421688674   18.2690700738   21.2983149227
H       26.5704868812   19.5190980358   22.2984334714
H       25.3795854928   19.9458564749   21.0453456377
47   
Dihedral (-75,) Energy -1346.041722870
H       16.2244875836   17.5829947466   19.4059302880
C       16.7237734045   18.3596840320   19.9726567979
H       17.4289691054   17.9150291979   20.6639014166
H       15.9798062768   18.9240960720   20.5187588709
O       17.3785914923   19.1730708901   19.0364650113
C       17.9337709332   20.3192855124   19.5235118006
C       16.8853577616   21.3108878236   20.2984948185
O       15.7470140929   21.4398573468   19.7715588129
O       17.2405340051   21.8580791892   21.3706218844
C       18.5892113150   21.1073034323   18.3607884188
H       17.8222763869   21.5785860405   17.7615471659
H       19.1332694104   20.3939795044   17.7411508124
C       19.5651492761   22.1694044518   18.8974517405
H       18.9774730592   22.9423052174   19.3798575681
O       20.1909502908   22.8411545068   17.8200561612
H       20.4395094331   22.2085139726   17.1608026414
C       20.5434422875   21.6852698454   19.8742960492
H       21.1833346443   20.9304944431   19.4330012105
N       21.4002982918   22.7719381605   20.3034137188
H       21.1200853250   23.2936508680   21.0982339205
C       22.6064237402   23.0281191417   19.7766607795
C       23.3493770565   24.1877156243   20.4172365594
H       24.0500161133   23.7924267598   21.1462502074
H       22.6932304108   24.8916551527   20.9163748906
H       23.9133633300   24.7027469905   19.6512390831
O       23.1190582340   22.3904583196   18.8909030545
C       19.6946718841   21.0813928244   21.0139702773
H       19.0265340380   21.8325051752   21.3728504264
O       18.9495689958   19.9723859410   20.4741495491
C       20.4243715192   20.5255126561   22.2511305835
H       19.6500065189   20.3314399883   22.9864614784
O       21.3359722826   21.4758800291   22.7654833172
H       20.8699779952   22.0287122746   23.3758070929
C       21.1218690271   19.1711975276   22.0380747254
H       21.4964405104   19.1175356762   21.0221579390
O       20.1719077158   18.1581538195   22.2456853262
H       20.3863928494   17.4137865167   21.7041686233
C       22.3184740255   18.9478732611   22.9638861012
H       22.2194678447   19.4466100816   23.9138155595
H       22.4436426876   17.8870399440   23.1410763745
O       23.4704961732   19.4303947581   22.2809848682
C       24.6293701301   19.4236510698   22.9029466656
O       24.7858708553   19.0631303449   24.0280227255
C       25.7377106309   19.9026865976   22.0009432552
H       26.0876161675   19.0637646379   21.4070726407
H       26.5598845498   20.2675623184   22.6006819833
H       25.3819096850   20.6671424583   21.3236692159
47   
Dihedral (-60,) Energy -1346.046032350
H       15.8661680075   17.8035752465   19.4435457288
C       16.4501699787   18.5211860717   20.0070948041
H       17.1570441595   17.9993512661   20.6405364687
H       15.7800368573   19.1166281553   20.6127493987
O       17.1126762848   19.3193501015   19.0638023072
C       17.7757869886   20.4045898103   19.5550346377
C       16.8464621964   21.4423006630   20.4167513062
O       15.6939684414   21.6703858983   19.9586505856
O       17.2951468676   21.9201262485   21.4869801489
C       18.4238532515   21.1821746496   18.3812067382
H       17.6632592378   21.7284660011   17.8405069636
H       18.8791759226   20.4527275943   17.7109512419
C       19.5027936586   22.1527458044   18.8934569025
H       19.0008601799   22.9505679079   19.4291515073
O       20.1204722765   22.8127368771   17.8033679855
H       20.2861842335   22.1858831293   17.1132575117
C       20.4940025111   21.5669685775   19.7990166119
H       21.0417584045   20.7803107782   19.2942728320
N       21.4596294039   22.5519397602   20.2401734147
H       21.2814937666   23.0087532086   21.1029872921
C       22.6582128614   22.7355216207   19.6633405282
C       23.5232410851   23.7988222847   20.3179242278
H       24.2292465236   23.3172320975   20.9866518029
H       22.9500770671   24.5218399155   20.8863434454
H       24.0841511574   24.3092658766   19.5465247756
O       23.0690515715   22.1082922429   18.7198722633
C       19.6657213731   20.9876097012   20.9661625534
H       19.0711921754   21.7689719211   21.3839613715
O       18.8130321177   19.9538026152   20.4364032281
C       20.4114346061   20.3620344477   22.1485821464
H       19.6401617319   19.9709416721   22.8027204966
O       21.1436695453   21.3635689402   22.8360607488
H       20.5698829028   21.7483707342   23.4831003905
C       21.3196395247   19.1641695081   21.8284415251
H       21.7683575137   19.2855716449   20.8493176799
O       20.5077946070   18.0152901227   21.8534477311
H       20.8478058969   17.3742950381   21.2473632257
C       22.4579470316   18.9702603076   22.8324737877
H       22.2116071325   19.3299098117   23.8175893839
H       22.6945780260   17.9162189034   22.8996282074
O       23.6067268737   19.6545054347   22.3419207402
C       24.6839997325   19.6817704250   23.0975271314
O       24.7551681190   19.1950020001   24.1827087634
C       25.8330428009   20.3652151278   22.4024615821
H       26.3275965042   19.6419775729   21.7614401617
H       26.5419568100   20.7182669560   23.1381528002
H       25.4846943456   21.1775711006   21.7805898047
47   
Dihedral (-45,) Energy -1346.047285190
H       15.5773222895   18.0126660582   19.5420001318
C       16.2374597789   18.6749199713   20.0889086914
H       16.9418935813   18.0886983369   20.6664159249
H       15.6429815455   19.2942400260   20.7473809025
O       16.8974770007   19.4552821046   19.1299445478
C       17.6572856727   20.4819582915   19.6068510708
C       16.8464383354   21.5537143312   20.5432855784
O       15.6866018706   21.8645392040   20.1582034139
O       17.3833348769   21.9730711667   21.5972812843
C       18.2856814161   21.2467235819   18.4140590334
H       17.5322987331   21.8535259649   17.9308789574
H       18.6541148664   20.5072329067   17.7027487509
C       19.4516069059   22.1350820619   18.8830557935
H       19.0319958242   22.9480113504   19.4648377565
O       20.0473222284   22.7844293490   17.7740185494
H       20.1343147633   22.1666464501   17.0616512082
C       20.4534433448   21.4662466844   19.7165132434
H       20.9238947491   20.6623769780   19.1648732507
N       21.4966395413   22.3737632190   20.1481519886
H       21.3662142339   22.8385644271   21.0171420542
C       22.6783367741   22.5024104653   19.5213555297
C       23.6359484244   23.4957635527   20.1536303207
H       24.3478009255   22.9542666901   20.7663987302
H       23.1367546046   24.2310646710   20.7736191772
H       24.1809959548   23.9971744657   19.3652349359
O       22.9992977860   21.8820609973   18.5393828212
C       19.6577272598   20.9106564645   20.9173843517
H       19.1377234668   21.7115405188   21.3915951608
O       18.7122056029   19.9455440362   20.4163576082
C       20.4355369834   20.2072552480   22.0329032550
H       19.6987040056   19.6382632751   22.5871293695
O       21.0165932413   21.1782727308   22.8907173965
H       20.3814287871   21.3964391104   23.5577337812
C       21.5168908138   19.1958033224   21.6205754311
H       22.0103182045   19.5040930785   20.7071860163
O       20.8673234948   17.9570063592   21.4427515957
H       21.3190276468   17.4530316662   20.7822182818
C       22.5923377108   18.9854298642   22.6908833876
H       22.2228466338   19.1652014605   23.6860882091
H       22.9413675628   17.9628415475   22.6343925007
O       23.7016053250   19.8415790391   22.4279038925
C       24.6851762296   19.8432983044   23.3036374838
O       24.6907521966   19.2010773354   24.3070542753
C       25.8306743510   20.7187752761   22.8660030944
H       26.4637035520   20.1500921102   22.1919887499
H       26.4146253580   21.0021979558   23.7303394487
H       25.4769120987   21.5942381730   22.3415409000
47   
Dihedral (-30,) Energy -1346.046485140
H       15.3525890035   18.2185689374   19.6648131769
C       16.0775040851   18.8290130143   20.1894170564
H       16.7686669536   18.1889162738   20.7244482960
H       15.5544062389   19.4724320455   20.8843873511
O       16.7404850806   19.5829072428   19.2122016908
C       17.5849618834   20.5525061560   19.6662108347
C       16.8859617920   21.6571583614   20.6532196379
O       15.7305881579   22.0434564154   20.3276331225
O       17.4956472155   22.0262253958   21.6862240951
C       18.2025061302   21.2957156576   18.4542790131
H       17.4659724635   21.9545338808   18.0152408194
H       18.4909310877   20.5460506190   17.7172077117
C       19.4413013112   22.1046256449   18.8780385341
H       19.0992622203   22.9307533979   19.4909738133
O       20.0225559894   22.7359236783   17.7509594505
H       20.0391318984   22.1256943837   17.0270418417
C       20.4382028747   21.3638189930   19.6546086294
H       20.8465247060   20.5457468028   19.0762625916
N       21.5383990020   22.2150747974   20.0661844525
H       21.4337743956   22.7191027614   20.9174979232
C       22.7055348789   22.2970510726   19.4048038223
C       23.7344622940   23.2263366660   20.0198930833
H       24.4305842987   22.6321657988   20.6012769572
H       23.2964631011   23.9773419043   20.6670245589
H       24.2826587433   23.7099238959   19.2227153902
O       22.9618005252   21.6749358748   18.4048574526
C       19.6670213095   20.8393913175   20.8851331544
H       19.2241107172   21.6591130515   21.4019938400
O       18.6417764472   19.9410078961   20.4179488220
C       20.4575211490   20.0468736071   21.9386244585
H       19.7629183418   19.3312200244   22.3594262265
O       20.8999526917   20.9303872117   22.9581645839
H       20.2179311534   20.9945426204   23.6113054138
C       21.6727880226   19.2311755583   21.4652502362
H       22.1760494746   19.7153596533   20.6405576276
O       21.1893176507   17.9644838747   21.0713893815
H       21.7351357785   17.6188214911   20.3805078625
C       22.7063050128   18.9900996547   22.5697009309
H       22.2669110965   18.9790866220   23.5521046398
H       23.1820636880   18.0341379636   22.3947405945
O       23.7150092382   19.9971650906   22.5054331020
C       24.6426175199   19.9834938412   23.4400960926
O       24.6737055039   19.2073771011   24.3432379407
C       25.6879990194   21.0457790971   23.2165423788
H       26.4298534267   20.6646526598   22.5215272227
H       26.1785388569   21.2648717279   24.1545478061
H       25.2525370497   21.9420525835   22.7985563492
47   
Dihedral (-15,) Energy -1346.043679370
H       15.1958244029   18.4063330731   19.8381837719
C       15.9783571200   18.9732282009   20.3276168464
H       16.6583901824   18.2922739754   20.8255623109
H       15.5268009931   19.6400702865   21.0501623653
O       16.6323658644   19.6951122538   19.3211918294
C       17.5507171728   20.6148134046   19.7349949784
C       16.9625588408   21.7508230041   20.7580277082
O       15.8148186537   22.2001224682   20.4916755835
O       17.6433253690   22.0836033327   21.7584472137
C       18.1459247581   21.3293966824   18.4949955146
H       17.4243045556   22.0284929789   18.0950930693
H       18.3558526375   20.5686718389   17.7428803161
C       19.4461674333   22.0686315414   18.8575169727
H       19.1793623817   22.9058355389   19.4919089452
O       20.0023819705   22.6762927838   17.7055478953
H       19.9509464141   22.0704381713   16.9795802618
C       20.4393550282   21.2717582937   19.5815610069
H       20.8023555452   20.4433536203   18.9890391177
N       21.5738117097   22.1028371442   19.9544982789
H       21.4782343001   22.6546312585   20.7770161883
C       22.7275514538   22.1618326706   19.2686239091
C       23.7889071348   23.0663756043   19.8660533120
H       24.4789007526   22.4552694682   20.4386162159
H       23.3803448603   23.8290652222   20.5187908318
H       24.3374827142   23.5352119281   19.0603581361
O       22.9511341885   21.5307044285   18.2664621259
C       19.7036441174   20.7838040031   20.8482756811
H       19.3425399330   21.6195555933   21.4014261049
O       18.6093779267   19.9439578879   20.4314771603
C       20.4903526054   19.8937911723   21.8394828662
H       19.8402813032   19.0693353542   22.0973130128
O       20.7910604476   20.6478602163   23.0037181889
H       20.0669471803   20.5694773343   23.6080179444
C       21.8086494970   19.2630938342   21.3535287874
H       22.3105045806   19.8959805887   20.6408466448
O       21.4713016345   18.0311438221   20.7484442193
H       22.0919644102   17.8388065153   20.0606893939
C       22.7997677456   18.9721515399   22.4820660101
H       22.3188056442   18.7867188885   23.4266219820
H       23.3881803315   18.1038188741   22.2151371755
O       23.6864226395   20.0838523397   22.6025753614
C       24.5705101097   20.0623827328   23.5774447483
O       24.6609130343   19.1902967311   24.3836403921
C       25.4806019303   21.2633476366   23.5347958257
H       26.2917886803   21.0619425242   22.8417103551
H       25.9015264254   21.4283986972   24.5166116100
H       24.9496260972   22.1421821395   23.1959839377
47   
Dihedral (0,) Energy -1346.040072800
H       19.4095846278   18.8087444731   15.1456012034
C       19.4497446896   18.8505188813   16.2272007924
H       20.4312203289   18.5360976206   16.5624438646
H       18.6921269072   18.1917695000   16.6306489068
O       19.1959171017   20.1811945160   16.5816936062
C       19.0288885836   20.4324445862   17.9122861038
C       17.8319801678   19.5685436903   18.6223068685
O       16.7738977717   19.4261584388   17.9512561378
O       18.0303254368   19.0658567659   19.7549983580
C       18.7311152418   21.9407792441   18.1091555943
H       17.7170755783   22.1552127227   17.8005485780
H       19.4194178192   22.5001419082   17.4752789868
C       18.9317109994   22.3539429999   19.5780252457
H       18.1421641860   21.8888930109   20.1565916743
O       18.6995650985   23.7418441829   19.7333944556
H       19.1098343337   24.2067849288   19.0176695150
C       20.2056201679   21.9466248195   20.1754494388
H       21.0571101363   22.4200870488   19.7082040251
N       20.1920889820   22.3101328424   21.5877576556
H       19.6669148791   21.7247307275   22.1974750133
C       20.7723100597   23.4090704591   22.0982061762
C       20.6586087479   23.5554657657   23.6046883519
H       21.5772879059   23.1968863144   24.0587986595
H       19.8287586461   23.0002659877   24.0261993331
H       20.5504565994   24.6047870523   23.8435714429
O       21.3737399195   24.2237308253   21.4449427178
C       20.2398121707   20.4110004423   20.0185269127
H       19.3958770361   19.9749911544   20.5018278683