12   
Dihedral (-165, -165) Energy -193.681354400
C        1.6305350046   -0.2961163322    0.6914368175
C        0.7588924624    0.2140332194   -0.4525262184
H        1.5166572014    0.3234144695    1.5869777034
H        2.6879944054   -0.2872682170    0.4146833513
H        1.3615592123   -1.3225572243    0.9576325241
H        1.0667791200    1.2166717785   -0.7652818161
C       -0.7147433642    0.2355406104   -0.0911529550
H        0.8710947305   -0.4383890962   -1.3248808330
H       -0.9221551737    1.0600431218    0.6064637174
H       -0.9876754742   -0.7025393946    0.4162045817
O       -1.4550140871    0.3803206288   -1.3055820560
H       -2.3630503389    0.6331517194   -1.0714058998
12   
Dihedral (-165, -150) Energy -193.680731352
C        1.6345506762   -0.2847969783    0.6918226644
C        0.7503996431    0.2019174056   -0.4527459434
H        1.5142703095    0.3400227243    1.5828983562
H        2.6907370502   -0.2616948477    0.4110260659
H        1.3826880268   -1.3130990169    0.9674881030
H        1.0380473346    1.2082975743   -0.7729803902
C       -0.7232520620    0.1978726396   -0.0884600904
H        0.8733978173   -0.4531959339   -1.3217668469
H       -0.9422765858    1.0198696526    0.6073799058
H       -0.9802478818   -0.7419818258    0.4226334822
O       -1.4797856962    0.3212545793   -1.2971192098
H       -2.3076370638    0.7818449464   -1.0876062575
12   
Dihedral (-165, -135) Energy -193.680067435
C        1.6369453913   -0.2732459108    0.6905110225
C        0.7395976862    0.1922874398   -0.4527006036
H        1.5140266350    0.3572603107    1.5772529214
H        2.6911491124   -0.2394558065    0.4033865232
H        1.3995128266   -1.3022808766    0.9762697904
H        1.0106030698    1.2012141538   -0.7804856051
C       -0.7331877528    0.1658606910   -0.0815464047
H        0.8688976530   -0.4655651984   -1.3186509271
H       -0.9627490323    0.9790220586    0.6200917728
H       -0.9722699795   -0.7793362418    0.4260799494
O       -1.5164965091    0.2690590918   -1.2769743998
H       -2.2251420050    0.9114923016   -1.1206580638
12   
Dihedral (-165, -120) Energy -193.679850520
C        1.6375978828   -0.2623088570    0.6873108402
C        0.7266006275    0.1857010998   -0.4522698183
H        1.5147251266    0.3728747339    1.5707223634
H        2.6893059838   -0.2200362732    0.3922527957
H        1.4125942717   -1.2917131504    0.9818824063
H        0.9851799761    1.1963572821   -0.7865050305
C       -0.7443497681    0.1410554715   -0.0702550547
H        0.8574466152   -0.4745394627   -1.3159325338
H       -0.9819311144    0.9405229326    0.6437891075
H       -0.9655294595   -0.8124715658    0.4268191348
O       -1.5611382467    0.2264594175   -1.2453463359
H       -2.1196229881    1.0144058788   -1.1698854133
12   
Dihedral (-165, -105) Energy -193.680287710
C        1.6367802098   -0.2531640439    0.6819636467
C        0.7110343730    0.1826078797   -0.4506375929
H        1.5158158535    0.3834384498    1.5645760459
H        2.6854011939   -0.2023694923    0.3774213749
H        1.4236151985   -1.2836968002    0.9814604923
H        0.9598384306    1.1952978893   -0.7882132945
C       -0.7569403778    0.1234438526   -0.0540597555
H        0.8396399180   -0.4779629074   -1.3141545957
H       -0.9976180415    0.9085482473    0.6751355776
H       -0.9630758692   -0.8389636318    0.4289209634
O       -1.6082397319    0.1955625013   -1.2043544096
H       -1.9953729647    1.0835680608   -1.2354709357
12   
Dihedral (-165, -90) Energy -193.681133237
C        1.6344706004   -0.2471648449    0.6745837619
C        0.6928512559    0.1836681850   -0.4469547277
H        1.5160602101    0.3852659760    1.5604582152
H        2.6794580939   -0.1855285773    0.3597549987
H        1.4336915418   -1.2806501055    0.9723308915
H        0.9333174603    1.1995159452   -0.7831159819
C       -0.7708030096    0.1126320755   -0.0330190840
H        0.8164641689   -0.4736971953   -1.3135587086
H       -1.0077450664    0.8867370131    0.7101487433
H       -0.9667754054   -0.8568575158    0.4370004571
O       -1.6524506758    0.1786318326   -1.1583803996
H       -1.8576608716    1.1137556431   -1.3166955371
12   
Dihedral (-165, -75) Energy -193.681865116
C        1.6313665493   -0.2444917417    0.6652391073
C        0.6727230710    0.1892714564   -0.4407530285
H        1.5165072368    0.3773967256    1.5588997076
H        2.6720602282   -0.1694277019    0.3393561162
H        1.4433497742   -1.2829081222    0.9536324389
H        0.9049810775    1.2098890479   -0.7699026832
C       -0.7854203074    0.1083497401   -0.0080394810
H        0.7897262919   -0.4604458053   -1.3141774060
H       -1.0124226922    0.8762530871    0.7459466944
H       -0.9760771153   -0.8654795621    0.4529500509
O       -1.6910662641    0.1765649518   -1.1118413444
H       -1.7148421486    1.1013483733   -1.4087761861
12   
Dihedral (-165, -60) Energy -193.682030233
C        1.6277078281   -0.2449165270    0.6546070812
C        0.6525572036    0.2000260051   -0.4323293750
H        1.5180356102    0.3610990273    1.5596165768
H        2.6637929510   -0.1559848341    0.3177988500
H        1.4506400750   -1.2894018933    0.9270091146
H        0.8776144236    1.2265263155   -0.7491479693
C       -0.7995621993    0.1107364898    0.0184752500
H        0.7620645491   -0.4380415384   -1.3156835839
H       -1.0131966549    0.8751016943    0.7809181786
H       -0.9874514973   -0.8657895319    0.4737941331
O       -1.7233095310    0.1900266162   -1.0683918067
H       -1.5779996222    1.0469340156   -1.5041212137
12   
Dihedral (-165, -45) Energy -193.681476097
C        1.6236456031   -0.2480518574    0.6438433523
C        0.6349273403    0.2161489649   -0.4224489083
H        1.5211515338    0.3387270042    1.5621282201
H        2.6555031200   -0.1477824412    0.2974790803
H        1.4529352413   -1.2985715123    0.8956899984
H        0.8554190436    1.2486995253   -0.7225699713
C       -0.8117112378    0.1198691011    0.0434472425
H        0.7369999398   -0.4073795468   -1.3176719272
H       -1.0122947577    0.8803069361    0.8135181151
H       -0.9965077173   -0.8594723797    0.4942573518
O       -1.7493847588    0.2187069053   -1.0302356501
H       -1.4597838976    0.9551169836   -1.5948961054
12   
Dihedral (-165, -30) Energy -193.680419454
C        1.6193524170   -0.2534659490    0.6341887214
C        0.6221901039    0.2372258527   -0.4120189411
H        1.5253937450    0.3123987333    1.5662754922
H        2.6481548167   -0.1463098355    0.2809614344
H        1.4487539628   -1.3091472304    0.8628808631
H        0.8421120960    1.2750499372   -0.6925433250
C       -0.8204967229    0.1352312208    0.0641442161
H        0.7180645485   -0.3700122212   -1.3199272931
H       -1.0119006825    0.8893470864    0.8418697523
H       -0.9999426170   -0.8483984565    0.5095821274
O       -1.7692998016    0.2608218249   -0.9983825879
H       -1.3714565951    0.8335813645   -1.6744856971
12   
Dihedral (-165, -15) Energy -193.679369285
C        1.6107520483   -0.2633244288    0.6336748700
C        0.6178060550    0.2619120145   -0.3995728033
H        1.5213453500    0.2804621819    1.5791558100
H        2.6402583482   -0.1556618203    0.2827244093
H        1.4311529868   -1.3227415150    0.8363196362
H        0.8445096518    1.3037252865   -0.6565641316
C       -0.8259304722    0.1570043026    0.0727286517
H        0.7141565819   -0.3268005454   -1.3205765868
H       -1.0181009818    0.9015798851    0.8575657506
H       -1.0019769200   -0.8329315037    0.5088277964
O       -1.7762835496    0.3170219607   -0.9852482792
H       -1.3073991706    0.6954212889   -1.7458677407
12   
Dihedral (-165, 0) Energy -193.678872945
C        1.6073981547   -0.2710468180    0.6268063142
C        0.6167612828    0.2886648716   -0.3903932760
H        1.5261462151    0.2513231098    1.5849655044
H        2.6368240570   -0.1649051953    0.2751713943
H        1.4179344113   -1.3330686883    0.8052995621
H        0.8497587254    1.3335633417   -0.6254272160
C       -0.8269558370    0.1800140209    0.0819723983
H        0.7114260089   -0.2806235740   -1.3247251328
H       -1.0224605735    0.9140828051    0.8734420064
H       -0.9956064638   -0.8170041169    0.5092922042
O       -1.7812835845    0.3744133907   -0.9669398766
H       -1.2896606145    0.5402548263   -1.7863218567
12   
Dihedral (-165, 15) Energy -193.679171167
C        1.6050081472   -0.2791560320    0.6215563258
C        0.6210444959    0.3156690691   -0.3821435820
H        1.5295144774    0.2214863334    1.5917177999
H        2.6357017991   -0.1761976927    0.2726620509
H        1.4038434704   -1.3429076149    0.7756281687
H        0.8618672142    1.3631899751   -0.5937843514
C       -0.8246648768    0.2041365028    0.0849546449
H        0.7165129007   -0.2316018113   -1.3302704258
H       -1.0284093064    0.9271755136    0.8820748332
H       -0.9898406594   -0.8000309111    0.5015305197
O       -1.7766473678    0.4336656597   -0.9577743823
H       -1.3036501660    0.3802460457   -1.8030131361
12   
Dihedral (-165, 30) Energy -193.680045975
C        1.6040309856   -0.2871862024    0.6183200279
C        0.6303602406    0.3408283217   -0.3752392493
H        1.5289361610    0.1907407541    1.5999733131
H        2.6374211008   -0.1858066554    0.2769394987
H        1.3926374024   -1.3524810682    0.7467724148
H        0.8787547065    1.3908706445   -0.5618670856
C       -0.8191495330    0.2276795167    0.0814925650
H        0.7287120016   -0.1823022301   -1.3369470971
H       -1.0322369052    0.9413562060    0.8827682065
H       -0.9882518534   -0.7820405301    0.4865620971
O       -1.7620437856    0.4909771984   -0.9594966773
H       -1.3488810798    0.2230384734   -1.7961347433
12   
Dihedral (-165, 45) Energy -193.680962550
C        1.6049174901   -0.2943949204    0.6175793230
C        0.6443017297    0.3629300464   -0.3698517588
H        1.5248829851    0.1613148216    1.6094652710
H        2.6421532348   -0.1930217539    0.2879443143
H        1.3855404866   -1.3610193564    0.7206068993
H        0.8987302689    1.4155423022   -0.5301225510
C       -0.8105112832    0.2486038678    0.0714180080
H        0.7477705704   -0.1352995684   -1.3438990775
H       -1.0321800025    0.9545445295    0.8761494268
H       -0.9900790881   -0.7647891202    0.4643004850
O       -1.7387753094    0.5425253478   -0.9729662381
H       -1.4264631720    0.0787545876   -1.7674730290
12   
Dihedral (-165, 60) Energy -193.681397699
C        1.6075017102   -0.3001093805    0.6197556213
C        0.6619911821    0.3808953361   -0.3663734560
H        1.5164227409    0.1347321727    1.6201595018
H        2.6495052869   -0.1960810672    0.3062463667
H        1.3837537889   -1.3681143451    0.6981794503
H        0.9206800534    1.4358166901   -0.5011391891
C       -0.7990599225    0.2654284089    0.0550626716
H        0.7729729038   -0.0945997377   -1.3501590770
H       -1.0276226670    0.9645964710    0.8635404299
H       -0.9925985193   -0.7499328117    0.4355106932
O       -1.7087834353    0.5850017145   -0.9980039343
H       -1.5344815567   -0.0419361261   -1.7196277857
12   
Dihedral (-165, 75) Energy -193.681119002
C        1.6113823487   -0.3035879751    0.6245268490
C        0.6816435650    0.3942589213   -0.3649685438
H        1.5047750953    0.1134967010    1.6310783990
H        2.6584023417   -0.1947479636    0.3298051377
H        1.3869080359   -1.3729877163    0.6811310927
H        0.9428084668    1.4510463061   -0.4777436875
C       -0.7856651566    0.2767953970    0.0339937847
H        0.8022438291   -0.0631804753   -1.3552002116
H       -1.0203536005    0.9681828726    0.8479400341
H       -0.9920623055   -0.7401637603    0.4009548783
O       -1.6739028583    0.6158716160   -1.0328919838
H       -1.6658780136   -0.1293073427   -1.6554729686
12   
Dihedral (-165, 90) Energy -193.680291069
C        1.6157285201   -0.3042531384    0.6317347731
C        0.7011650760    0.4028430170   -0.3654073561
H        1.4914840175    0.1001455055    1.6415451949
H        2.6673631075   -0.1895923649    0.3561915771
H        1.3934304944   -1.3749720059    0.6716713633
H        0.9632292621    1.4610451214   -0.4619160989
C       -0.7715865282    0.2818351908    0.0102018329
H        0.8326865792   -0.0427907583   -1.3586555759
H       -1.0138871213    0.9624449415    0.8321819908
H       -0.9857843329   -0.7381368385    0.3610155711
O       -1.6347113736    0.6336689253   -1.0757552977
H       -1.8088214384   -0.1765605310   -1.5796451542
12   
Dihedral (-165, 105) Energy -193.679398087
C        1.6200158401   -0.3019058441    0.6405966394
C        0.7186406150    0.4066517340   -0.3674918787
H        1.4779343247    0.0956074294    1.6508459091
H        2.6753769660   -0.1806735779    0.3826558263
H        1.4024791943   -1.3739836194    0.6702267806
H        0.9799437465    1.4660120153   -0.4543764928
C       -0.7580653141    0.2799583211   -0.0140157545
H        0.8613157534   -0.0336333208   -1.3606977476
H       -1.0110544284    0.9463593265    0.8180441079
H       -0.9728872083   -0.7454930335    0.3174336430
O       -1.5920734631    0.6375637161   -1.1231495855
H       -1.9513036609   -0.1808180591   -1.4969349918
12   
Dihedral (-165, 120) Energy -193.678982266
C        1.6239261718   -0.2967453683    0.6506067050
C        0.7329990384    0.4060035064   -0.3707016866
H        1.4654495915    0.0999125144    1.6587504304
H        2.6819338751   -0.1688112782    0.4071964944
H        1.4129020863   -1.3701972249    0.6769175366
H        0.9909013994    1.4666973296   -0.4535618547
C       -0.7461584846    0.2703550028   -0.0376135060
H        0.8876073386   -0.0339546725   -1.3615321981
H       -1.0134840682    0.9213141691    0.8040773180
H       -0.9551832895   -0.7623946398    0.2734336408
O       -1.5478784906    0.6269287388   -1.1716460478
H       -2.0826941514   -0.1434524243   -1.4127899542
12   
Dihedral (-165, 135) Energy -193.679294859
C        1.6278286230   -0.2895934072    0.6604570041
C        0.7438528261    0.4011559993   -0.3748517316
H        1.4531901277    0.1092252278    1.6650401104
H        2.6874196311   -0.1523295121    0.4294121518
H        1.4267457501   -1.3648630955    0.6876659373
H        0.9942695082    1.4637700777   -0.4576055479
C       -0.7363816546    0.2524372249   -0.0598843860
H        0.9119482964   -0.0413221209   -1.3618771286
H       -1.0201004465    0.8912346255    0.7875709344
H       -0.9362354815   -0.7872256867    0.2350469672
O       -1.5060504733    0.6018103490   -1.2171948187
H       -2.1961684138   -0.0686435103   -1.3306492139
12   
Dihedral (-165, 150) Energy -193.680136995
C        1.6320667784   -0.2811930275    0.6693495412
C        0.7510824838    0.3925755965   -0.3793992500
H        1.4415389340    0.1210731556    1.6696274571
H        2.6921190015   -0.1313425673    0.4485564254
H        1.4446283723   -1.3587321021    0.7002394927
H        0.9886861549    1.4579723684   -0.4641160822
C       -0.7290570883    0.2260206162   -0.0803883374
H        0.9348131253   -0.0528383860   -1.3621408147
H       -1.0296205037    0.8592119358    0.7668676598
H       -0.9192050425   -0.8183435824    0.2070308867
O       -1.4706215984    0.5632088371   -1.2573500321
H       -2.2861160444    0.0380474842   -1.2551388255
12   
Dihedral (-165, 165) Energy -193.681026597
C        1.6193437646   -0.3167560770    0.6856028491
C        0.7666937774    0.2417610415   -0.4503926808
H        1.5283855118    0.2929263983    1.5904041450
H        2.6763865509   -0.3423811928    0.4083070102
H        1.3131559204   -1.3367246252    0.9363872079
H        1.1168301993    1.2343627134   -0.7513676400
C       -0.7043445429    0.3161504891   -0.0828823286
H        0.8485424487   -0.4045265130   -1.3300407743
H       -0.8850833875    1.1340249978    0.6304349602
H       -1.0008952237   -0.6223835874    0.4093515111
O       -1.4480621879    0.5050600176   -1.2892242190
H       -2.3800832803    0.3147649184   -1.0940225067
12   
Dihedral (-165, 180) Energy -193.681501113
C        1.6252782671   -0.3067702165    0.6893929991
C        0.7645320211    0.2277509005   -0.4518143851
H        1.5215173387    0.3078729783    1.5894699334
H        2.6830565028   -0.3148805566    0.4138557408
H        1.3375259963   -1.3302589422    0.9472874205
H        1.0941065062    1.2255985033   -0.7580329965
C       -0.7082226788    0.2760762265   -0.0893809982
H        0.8625325948   -0.4218795299   -1.3276508173
H       -0.9030402240    1.0981291632    0.6154307907
H       -0.9942699206   -0.6623984825    0.4100852200
O       -1.4442926297    0.4428783834   -1.3028105222
H       -2.3878448508    0.4741792537   -1.0732739329
12   
Dihedral (-150, -165) Energy -193.679406019
C        1.6195377725   -0.3404120046    0.6827949485
C        0.7716589382    0.3034296379   -0.4107213053
H        1.4840215346    0.1634108711    1.6455408722
H        2.6833095059   -0.2976773132    0.4341589008
H        1.3451838307   -1.3911118877    0.8132257008
H        1.0964426782    1.3293540495   -0.6099647769
C       -0.7161280564    0.2803076697   -0.0884169932
H        0.8996110242   -0.2545901317   -1.3440680886
H       -1.0015856177    1.1680031147    0.4937038564
H       -0.9497605971   -0.6033737159    0.5251793523
O       -1.4268928225    0.2168764772   -1.3282541593
H       -2.3551268134    0.4412848303   -1.1501743691
12   
Dihedral (-150, -150) Energy -193.678782669
C        1.6264343745   -0.3296754423    0.6838709715
C        0.7621794184    0.2908416528   -0.4102828408
H        1.4897193766    0.1809071707    1.6429193881
H        2.6879017987   -0.2738755493    0.4280615774
H        1.3681618913   -1.3829554740    0.8258662335
H        1.0678315796    1.3206114851   -0.6205480068
C       -0.7243345692    0.2440505132   -0.0820372490
H        0.8959512128   -0.2724373871   -1.3397310451
H       -1.0208756521    1.1281494548    0.4985421351
H       -0.9417767710   -0.6400026509    0.5359041360
O       -1.4507271038    0.1587830918   -1.3132743757
H       -2.3101839940    0.5911051138   -1.1862884252
12   
Dihedral (-150, -135) Energy -193.678100910
C        1.6308606253   -0.3188880707    0.6831177103
C        0.7508626943    0.2803982492   -0.4104404428
H        1.4950535678    0.1987679780    1.6385311010
H        2.6897003356   -0.2528408662    0.4189940081
H        1.3862664704   -1.3738239723    0.8368150712
H        1.0416205010    1.3126097913   -0.6314990564
C       -0.7338561414    0.2140072097   -0.0724348025
H        0.8864873670   -0.2886014837   -1.3360280614
H       -1.0395155826    1.0895122132    0.5149674567
H       -0.9325893005   -0.6745090391    0.5434936597
O       -1.4877815557    0.1079267780   -1.2872671158
H       -2.2368275620    0.7209462528   -1.2352532739
12   
Dihedral (-150, -120) Energy -193.677879657
C        1.6327499438   -0.3088419451    0.6801937456
C        0.7376557994    0.2728224480   -0.4108260961
H        1.4996165886    0.2149966903    1.6326185130
H        2.6887265394   -0.2347754558    0.4069171268
H        1.3995910472   -1.3648528944    0.8442207217
H        1.0178947145    1.3064587619   -0.6411499134
C       -0.7446069407    0.1915148099   -0.0592643673
H        0.8710567351   -0.3016000749   -1.3332050666
H       -1.0562812984    1.0549145557    0.5420693818
H       -0.9243907462   -0.7050961591    0.5482285394
O       -1.5333970679    0.0672687613   -1.2507239305
H       -2.1383330813    0.8227056539   -1.2960809030
12   
Dihedral (-150, -105) Energy -193.678327789
C        1.6324950934   -0.3006659416    0.6746286639
C        0.7219680836    0.2687544040   -0.4103064591
H        1.5038578731    0.2264404762    1.6258391968
H        2.6852187898   -0.2194103114    0.3910752612
H        1.4093092534   -1.3577694874    0.8454725339
H        0.9944076579    1.3037285699   -0.6464494791
C       -0.7568783063    0.1763791474   -0.0416669644
H        0.8498025088   -0.3088606550   -1.3313637097
H       -1.0695668291    1.0279644910    0.5762296345
H       -0.9206770145   -0.7293059442    0.5541669776
O       -1.5814469160    0.0390971635   -1.2061806592
H       -2.0182109270    0.8891512476   -1.3684415555
12   
Dihedral (-150, -90) Energy -193.679176637
C        1.6304627317   -0.2955263060    0.6662861838
C        0.7035301333    0.2686465395   -0.4077032830
H        1.5072011338    0.2290455926    1.6195480709
H        2.6794833597   -0.2054263494    0.3719237391
H        1.4172109442   -1.3546096260    0.8373112431
H        0.9692235455    1.3055811845   -0.6449182490
C       -0.7707076290    0.1682096504   -0.0193217870
H        0.8234603233   -0.3083953723   -1.3302570257
H       -1.0780024931    1.0121939554    0.6129069852
H       -0.9241371703   -0.7444524502    0.5661942049
O       -1.6264704321    0.0252497283   -1.1582324501
H       -1.8809750704    0.9149936381   -1.4507112151
12   
Dihedral (-150, -75) Energy -193.679884998
C        1.6270729889   -0.2935559398    0.6553392125
C        0.6830975057    0.2732781262   -0.4024895925
H        1.5108516365    0.2224197860    1.6140700247
H        2.6718911726   -0.1935389753    0.3495072424
H        1.4228197083   -1.3553816959    0.8195901911
H        0.9423766848    1.3131370411   -0.6351990259
C       -0.7854994156    0.1665166893    0.0066240918
H        0.7939731660   -0.2985070937   -1.3297434514
H       -1.0819795264    1.0076566320    0.6493097089
H       -0.9338674048   -0.7501681751    0.5854109538
O       -1.6656379207    0.0264418821   -1.1118542178
H       -1.7348184353    0.8972172544   -1.5375499499
12   
Dihedral (-150, -60) Energy -193.679996782
C        1.6225539324   -0.2943598397    0.6425478692
C        0.6626377628    0.2831929635   -0.3950221465
H        1.5150545420    0.2076977465    1.6095318088
H        2.6630281959   -0.1847559332    0.3254664206
H        1.4248374541   -1.3592190727    0.7937392611
H        0.9166922096    1.3265410410   -0.6179502837
C       -0.8000078377    0.1712908884    0.0335696612
H        0.7644808469   -0.2789848337   -1.3297096763
H       -1.0829252721    1.0119832682    0.6840736385
H       -0.9460757628   -0.7476030575    0.6085981609
O       -1.6986454889    0.0428043572   -1.0705700548
H       -1.5913606490    0.8369365695   -1.6212683143
12   
Dihedral (-150, -45) Energy -193.679364253
C        1.6169558831   -0.2975464206    0.6293275844
C        0.6449094676    0.2985564039   -0.3861898015
H        1.5191000025    0.1867087581    1.6062330731
H        2.6536872021   -0.1805925685    0.3028328294
H        1.4214431320   -1.3650563576    0.7625820434
H        0.8966136131    1.3452153476   -0.5947960238
C       -0.8125771448    0.1824883134    0.0581416278
H        0.7393088164   -0.2504691468   -1.3302120945
H       -1.0823956202    1.0220437859    0.7158876410
H       -0.9559646457   -0.7386983835    0.6304298893
O       -1.7262068601    0.0738232420   -1.0362290758
H       -1.4645868173    0.7390505331   -1.6949800123
12   
Dihedral (-150, -30) Energy -193.678210253
C        1.6105834725   -0.3026571874    0.6170083219
C        0.6323320085    0.3188707487   -0.3769955218
H        1.5220134786    0.1612521669    1.6044938947
H        2.6449009925   -0.1817813827    0.2844182293
H        1.4120735631   -1.3719370898    0.7289426145
H        0.8857169177    1.3680729854   -0.5676520417
C       -0.8217364874    0.1993792319    0.0775742950
H        0.7224299114   -0.2138776795   -1.3316675460
H       -1.0819686054    1.0351227958    0.7430560225
H       -0.9598923374   -0.7255953464    0.6465112971
O       -1.7487088101    0.1174910140   -1.0091929352
H       -1.3674584156    0.6111854678   -1.7534718633
12   
Dihedral (-150, -15) Energy -193.677054138
C        1.6033278529   -0.3093596508    0.6076014260
C        0.6262875866    0.3426411037   -0.3677905663
H        1.5217032454    0.1327627867    1.6055310174
H        2.6372072213   -0.1882465760    0.2737764990
H        1.3969774585   -1.3792849914    0.6960607863
H        0.8857259950    1.3933588037   -0.5376970804
C       -0.8270314257    0.2208397003    0.0895788000
H        0.7163565676   -0.1707256418   -1.3340415554
H       -1.0841347479    1.0500056676    0.7623944373
H       -0.9584912371   -0.7096573643    0.6537542128
O       -1.7638957753    0.1706761706   -0.9917859082
H       -1.3037435237    0.4626762061   -1.7941916391
12   
Dihedral (-150, 0) Energy -193.676462259
C        1.5974843124   -0.3165912605    0.5982098989
C        0.6255787182    0.3680329561   -0.3596632256
H        1.5212576041    0.1026327939    1.6063429575
H        2.6320032687   -0.1970184776    0.2658083893
H        1.3812876478   -1.3863254996    0.6621342825
H        0.8929917853    1.4197987457   -0.5062153915
C       -0.8286205988    0.2442154111    0.0963179840
H        0.7174726183   -0.1217276037   -1.3387917171
H       -1.0883469429    1.0647814949    0.7759034122
H       -0.9533927256   -0.6930977629    0.6542274987
O       -1.7716513350    0.2285015678   -0.9807345762
H       -1.2757761887    0.3024835339   -1.8103716723
12   
Dihedral (-150, 15) Energy -193.676696416
C        1.5930815993   -0.3239565418    0.5903611089
C        0.6298177289    0.3933812432   -0.3520190587
H        1.5196749397    0.0718536532    1.6081115767
H        2.6293256310   -0.2069879119    0.2623822242
H        1.3663715191   -1.3928085796    0.6292587616
H        0.9055746252    1.4459828810   -0.4726611006
C       -0.8272350697    0.2679809891    0.0969197385
H        0.7246785210   -0.0690945055   -1.3445520115
H       -1.0948907736    1.0791734948    0.7819187321
H       -0.9498648913   -0.6767292643    0.6463948292
O       -1.7686701034    0.2876628961   -0.9801229170
H       -1.2775668290    0.1391903355   -1.8028122189
12   
Dihedral (-150, 30) Energy -193.677554805
C        1.5908987930   -0.3308574410    0.5844872473
C        0.6384879496    0.4170216751   -0.3449958812
H        1.5165979930    0.0415043162    1.6110225038
H        2.6297671816   -0.2158504165    0.2641280397
H        1.3551750185   -1.3985543563    0.5982449165
H        0.9212485794    1.4704495149   -0.4374095769
C       -0.8230356006    0.2903511357    0.0914730993
H        0.7365565282   -0.0160067989   -1.3503633239
H       -1.1007861088    1.0931156219    0.7802104637
H       -0.9511190768   -0.6611636270    0.6306108808
O       -1.7543860865    0.3444917410   -0.9911829338
H       -1.3090932750   -0.0188551054   -1.7730446718
12   
Dihedral (-150, 45) Energy -193.678493408
C        1.5915052136   -0.3365676990    0.5812574261
C        0.6512476868    0.4380481138   -0.3387034918
H        1.5121141219    0.0130497783    1.6154595384
H        2.6337239505   -0.2219979876    0.2717043653
H        1.3494294271   -1.4031092734    0.5702567298
H        0.9384801562    1.4923256726   -0.4016748250
C       -0.8159644115    0.3093679698    0.0799181883
H        0.7534682826    0.0339906572   -1.3550565481
H       -1.1035205397    1.1048399081    0.7717928067
H       -0.9562182127   -0.6479413044    0.6068245112
O       -1.7304170135    0.3952267362   -1.0136762881
H       -1.3735393342   -0.1615824030   -1.7249254364
12   
Dihedral (-150, 60) Energy -193.678955359
C        1.5947430335   -0.3404648926    0.5812989975
C        0.6674837147    0.4556356375   -0.3337108383
H        1.5051061929   -0.0121784508    1.6217464747
H        2.6409613159   -0.2237220355    0.2862757163
H        1.3501262873   -1.4061446109    0.5462505395
H        0.9563975883    1.5106832027   -0.3683608368
C       -0.8060384958    0.3235512034    0.0625498114
H        0.7762989707    0.0769585252   -1.3582015338
H       -1.1017556205    1.1123282164    0.7583058060
H       -0.9615859291   -0.6384438523    0.5759736373
O       -1.6995660063    0.4362226552   -1.0459376414
H       -1.4718598713   -0.2787766486   -1.6630042876
12   
Dihedral (-150, 75) Energy -193.678683005
C        1.5998156956   -0.3420777041    0.5847256148
C        0.6857992414    0.4691232154   -0.3306256159
H        1.4948489654   -0.0324848987    1.6295835435
H        2.6503837199   -0.2201699867    0.3076829710
H        1.3570213750   -1.4073957348    0.5274789553
H        0.9739954459    1.5248586191   -0.3407743657
C       -0.7938188946    0.3319452280    0.0406602278
H        0.8042370834    0.1100138471   -1.3600962331
H       -1.0965885444    1.1131346771    0.7424962146
H       -0.9630105297   -0.6345112191    0.5394396740
O       -1.6640300346    0.4647092704   -1.0857854642
H       -1.5983463318   -0.3615091371   -1.5915887395
12   
Dihedral (-150, 90) Energy -193.677845296
C        1.6057546938   -0.3411231251    0.5909343209
C        0.7040974353    0.4781387106   -0.3297286856
H        1.4824282160   -0.0458686109    1.6380440489
H        2.6603873820   -0.2117994640    0.3332919552
H        1.3685846756   -1.4066717360    0.5154999978
H        0.9897405878    1.5346248259   -0.3215212090
C       -0.7804166475    0.3340928121    0.0167024369
H        0.8339670704    0.1316023229   -1.3612187862
H       -1.0909590825    1.1049992291    0.7278231171
H       -0.9575166568   -0.6382429100    0.4987682261
O       -1.6245639308    0.4793643140   -1.1306374761
H       -1.7412030685   -0.4034734660   -1.5147502498
12   
Dihedral (-150, 105) Energy -193.676949399
C        1.6117115067   -0.3374997831    0.5992888531
C        0.7204342870    0.4825723262   -0.3308528722
H        1.4694332641   -0.0508908447    1.6464698377
H        2.6695767336   -0.1994607119    0.3600516357
H        1.3829692219   -1.4039654350    0.5116381085
H        1.0018918162    1.5401340825   -0.3114409325
C       -0.7671566782    0.3296550743   -0.0070154804
H        0.8622255712    0.1416190010   -1.3618623488
H       -1.0880684821    1.0869409199    0.7160109062
H       -0.9444892926   -0.6510276300    0.4558136486
O       -1.5814020831    0.4797226010   -1.1776984864
H       -1.8868321896   -0.4021592289   -1.4372113043
12   