4    
Dihedral (-165,) Energy -151.173833467
H       -0.9430723614   -0.3300434325   -0.8493792792
O       -0.7285283177   -0.1551930530    0.0793422162
O        0.7308142073   -0.1516797957   -0.0636034996
H        0.9472201718   -0.2274156189    0.8779685626
4    
Dihedral (-150,) Energy -151.174164298
H       -0.9341115177   -0.3907295952   -0.8318260449
O       -0.7284568775   -0.0941443117    0.0675504352
O        0.7298289311   -0.0897529407   -0.0581181853
H        0.9391731640   -0.2897050525    0.8667217949
4    
Dihedral (-135,) Energy -151.174552678
H       -0.9205314086   -0.4487093019   -0.8056600205
O       -0.7285924297   -0.0356186866    0.0500817658
O        0.7290837875   -0.0297519355   -0.0467278277
H        0.9264736507   -0.3502519760    0.8466339824
4    
Dihedral (-120,) Energy -151.174772630
H       -0.9028361526   -0.5029194615   -0.7713800898
O       -0.7279406221    0.0192983093    0.0269295746
O        0.7276012660    0.0272297881   -0.0293138782
H        0.9096091087   -0.4079405359    0.8180922934
4    
Dihedral (-105,) Energy -151.174558806
H       -0.8830091307   -0.5524717505   -0.7304722167
O       -0.7272124923    0.0696090629   -0.0021722410
O        0.7261046233    0.0802366247   -0.0055106262
H        0.8905505998   -0.4617058370    0.7824829838
4    
Dihedral (-90,) Energy -151.173673555
H       -0.8622515234   -0.5965274641   -0.6840498314
O       -0.7256792215    0.1144221700   -0.0370548308
O        0.7238807992    0.1283551146    0.0246062690
H        0.8704835458   -0.5105817206    0.7408263932
4    
Dihedral (-75,) Energy -151.171999294
H       -0.8430499377   -0.6343527833   -0.6339125188
O       -0.7230058871    0.1528876701   -0.0778771021
O        0.7206067294    0.1707507653    0.0612818344
H        0.8518826952   -0.5536175523    0.6948358866
4    
Dihedral (-60,) Energy -151.169620594
H       -0.8283122375   -0.6653163625   -0.5821606395
O       -0.7181959952    0.1842586851   -0.1245165942
O        0.7152969386    0.2066531678    0.1044714103
H        0.8376448944   -0.5899273903    0.6465339233
4    
Dihedral (-45,) Energy -151.166860916
H       -0.8208796753   -0.6889595958   -0.5310251805
O       -0.7099855881    0.2079910149   -0.1761806145
O        0.7066963913    0.2354214500    0.1534430637
H        0.8306024723   -0.6187847691    0.5980908313
4    
Dihedral (-30,) Energy -151.164244441
H       -0.8223227269   -0.7051058019   -0.4822656739
O       -0.6971890927    0.2239049256   -0.2311145241
O        0.6936236621    0.2566797225    0.2064707291
H        0.8323217574   -0.6398107461    0.5512375689
4    
Dihedral (-15,) Energy -151.162361842
H       -0.8323492448   -0.7138512170   -0.4367173010
O       -0.6788971059    0.2321853086   -0.2869269872
O        0.6751686724    0.2703537527    0.2611573576
H        0.8425113782   -0.6530197442    0.5068150307
4    
Dihedral (0,) Energy -151.161676010
H       -0.8491188360   -0.7153512261   -0.3972145270
O       -0.6540451455    0.2331334719   -0.3430700633
O        0.6503089380    0.2764700036    0.3171236499
H        0.8592888435   -0.6585840493    0.4674890405
4    
Dihedral (15,) Energy -151.162361843
H       -0.8720839838   -0.7100115431   -0.3582442469
O       -0.6245002903    0.2272045068   -0.3944341361
O        0.6208229429    0.2753783593    0.3688501848
H        0.8821951313   -0.6569030229    0.4281561982
4    
Dihedral (30,) Energy -151.164244440
H       -0.9024389961   -0.6974789607   -0.3239807816
O       -0.5907738165    0.2140465878   -0.4414252525
O        0.5872584553    0.2665823377    0.4169628625
H        0.9123880574   -0.6474815647    0.3927712718
4    
Dihedral (45,) Energy -151.166860915
H       -0.9401918293   -0.6776534519   -0.2952915125
O       -0.5547790293    0.1935552839   -0.4828939627
O        0.5515379411    0.2498956260    0.4603306681
H        0.9498667175   -0.6301291579    0.3621829072
4    
Dihedral (60,) Energy -151.169620600
H       -0.9848944444   -0.6504989401   -0.2729552072
O       -0.5189457276    0.1656794928   -0.5180694091
O        0.5160921546    0.2252248007    0.4981902435
H        0.9941818175   -0.6047371534    0.3371624728
4    
Dihedral (75,) Energy -151.171999295
H       -0.8486703366    0.1214519648   -0.6726661120
O       -0.7173903197   -0.6029165181   -0.0391130161
O        0.7262232354   -0.5850537443    0.1000363006
H        0.8462710208    0.2021865976    0.6560710275
4    
Dihedral (90,) Energy -151.173673555
H       -0.8672713697    0.0784160664   -0.7186565456
O       -0.7206643168   -0.5605209145   -0.0024375329
O        0.7288963085   -0.5465882132    0.0592140311
H        0.8654729779    0.1643612612    0.7062082472
4    
Dihedral (105,) Energy -151.174558807
H       -0.8873401065    0.0295397575   -0.7603132517
O       -0.7228857523   -0.5124021261    0.0276783511
O        0.7304273419   -0.5017747176    0.0243323787
H        0.8862322170    0.1203051862    0.7526307219
4    
Dihedral (120,) Energy -151.174772712
H       -0.9065650749   -0.0242304383   -0.7960081442
O       -0.7245705174   -0.4594005518    0.0514140744
O        0.7313444432   -0.4514600288   -0.0047016171
H        0.9062249491    0.0707591190    0.7936237870
4    
Dihedral (135,) Energy -151.174552546
H       -0.9233470097   -0.0818909493   -0.8245655192
O       -0.7261346416   -0.4024419813    0.0689429583
O        0.7320773850   -0.3965762712   -0.0279660143
H        0.9238379665    0.0165773017    0.8279165752
4    
Dihedral (150,) Energy -151.174164382
H       -0.9361249860   -0.1424422758   -0.8447279710
O       -0.7270512304   -0.3424414868    0.0803471629
O        0.7321133343   -0.3380500825   -0.0454485187
H        0.9374965821   -0.0413979549    0.8541573269
4    
Dihedral (165,) Energy -151.173833405
H       -0.9441186361   -0.2047526089   -0.8558769656
O       -0.7277860902   -0.2804910476    0.0857438887
O        0.7319339889   -0.2769725276   -0.0571543488
H        0.9464044375   -0.1021157159    0.8716154257
4    
Dihedral (180,) Energy -151.173706051
H       -0.9459590181   -0.2676515943   -0.8572081015
O       -0.7278882788   -0.2176795250    0.0856514297
O        0.7311050634   -0.2144864252   -0.0634874239
H        0.9491759334   -0.1645143555    0.8793720957
