4    
Dihedral (-165,) Energy -151.173833467
H       -0.9430723696   -0.3300434449   -0.8493792969
O       -0.7285284169   -0.1551930270    0.0793421773
O        0.7308141594   -0.1516797746   -0.0636035190
H        0.9472201272   -0.2274155535    0.8779685387
4    
Dihedral (-150,) Energy -151.174164298
H       -0.9341115936   -0.3907296108   -0.8318260704
O       -0.7284568509   -0.0941443163    0.0675504357
O        0.7298289026   -0.0897529498   -0.0581180906
H        0.9391731419   -0.2897050231    0.8667217253
4    
Dihedral (-135,) Energy -151.174552678
H       -0.9205313817   -0.4487093040   -0.8056600112
O       -0.7285924628   -0.0356186742    0.0500817800
O        0.7290837752   -0.0297519463   -0.0467278464
H        0.9264736693   -0.3502519755    0.8466339775
4    
Dihedral (-120,) Energy -151.174772630
H       -0.9028361653   -0.5029194701   -0.7713800951
O       -0.7279406270    0.0192983049    0.0269295733
O        0.7276012697    0.0272297952   -0.0293138776
H        0.9096091226   -0.4079405301    0.8180922994
4    
Dihedral (-105,) Energy -151.174558806
H       -0.8830091473   -0.5524717584   -0.7304722064
O       -0.7272124716    0.0696090456   -0.0021722132
O        0.7261046633    0.0802366447   -0.0055106454
H        0.8905505555   -0.4617058318    0.7824829649
4    
Dihedral (-90,) Energy -151.173673555
H       -0.8622515361   -0.5965274821   -0.6840498092
O       -0.7256791600    0.1144220780   -0.0370548211
O        0.7238808705    0.1283551421    0.0246062510
H        0.8704835257   -0.5105817379    0.7408263793
4    
Dihedral (-75,) Energy -151.171999295
H       -0.8430498956   -0.6343528014   -0.6339125093
O       -0.7230058497    0.1528876174   -0.0778770902
O        0.7206067430    0.1707507418    0.0612818375
H        0.8518827022   -0.5536175578    0.6948358620
4    
Dihedral (-60,) Energy -151.169620594
H       -0.8283122230   -0.6653164256   -0.5821606233
O       -0.7181959845    0.1842586643   -0.1245165915
O        0.7152969835    0.2066531253    0.1044713772
H        0.8376449238   -0.5899274640    0.6465339377
4    
Dihedral (-45,) Energy -151.166860916
H       -0.8208797307   -0.6889595982   -0.5310251861
O       -0.7099855702    0.2079910005   -0.1761806115
O        0.7066965114    0.2354213584    0.1534430748
H        0.8306024896   -0.6187848606    0.5980908227
4    
Dihedral (-30,) Energy -151.164244440
H       -0.8223227681   -0.7051058438   -0.4822657017
O       -0.6971890250    0.2239049615   -0.2311144933
O        0.6936237280    0.2566796274    0.2064707348
H        0.8323217651   -0.6398108450    0.5512375602
4    
Dihedral (-15,) Energy -151.162361842
H       -0.8323492900   -0.7138511584   -0.4367172797
O       -0.6788970955    0.2321853651   -0.2869269882
O        0.6751687379    0.2703536220    0.2611573505
H        0.8425113475   -0.6530198287    0.5068150173
4    
Dihedral (0,) Energy -151.161676170
H       -0.8495665406   -0.7154441370   -0.3944944013
O       -0.6548849780    0.2332009246   -0.3413947380
O        0.6511026862    0.2765793415    0.3152537434
H        0.8597824325   -0.6586681290    0.4649634959
4    
Dihedral (15,) Energy -151.162361844
H       -0.8731236397   -0.7100165718   -0.3557982074
O       -0.6255327124    0.2271626215   -0.3928398614
O        0.6218040587    0.2754006455    0.3670689753
H        0.8832858932   -0.6568786952    0.4258971935
4    
Dihedral (30,) Energy -151.164244440
H       -0.9033734914   -0.6974782500   -0.3214508456
O       -0.5919486266    0.2139954845   -0.4399304897
O        0.5883831129    0.2666232170    0.4152849851
H        0.9133727052   -0.6474725514    0.3904244503
4    
Dihedral (45,) Energy -151.166860915
H       -0.9410473403   -0.6776434578   -0.2926646292
O       -0.5560672395    0.1934922149   -0.4814914652
O        0.5527780218    0.2499491725    0.4587525119
H        0.9507702580   -0.6301301296    0.3597317828
4    
Dihedral (60,) Energy -151.169620601
H       -0.9856876587   -0.6504803033   -0.2702145651
O       -0.5203306455    0.1656056660   -0.5167567250
O        0.5174318598    0.2252896325    0.4967123933
H        0.9950202444   -0.6047471952    0.3345870969
4    
Dihedral (75,) Energy -151.171999295
H       -0.8477038517    0.1186610047   -0.6752346001
O       -0.7181450576   -0.6017943142   -0.0368834673
O        0.7254430057   -0.5859149131    0.1027696116
H        0.8468393036    0.2047165225    0.6536764559
4    
Dihedral (90,) Energy -151.173673555
H       -0.8663721188    0.0753615862   -0.7209495680
O       -0.7213492089   -0.5591523990   -0.0004884026
O        0.7282105387   -0.5477236479    0.0616968518
H        0.8659441889    0.1671826607    0.7040691188
4    
Dihedral (105,) Energy -151.174558807
H       -0.8865214890    0.0262532461   -0.7622932401
O       -0.7234866379   -0.5108325228    0.0293099805
O        0.7298461340   -0.5031432630    0.0265223945
H        0.8865953927    0.1233908397    0.7507887652
4    
Dihedral (120,) Energy -151.174772712
H       -0.9058398213   -0.0277115209   -0.7976426693
O       -0.7250746971   -0.4576729742    0.0526962765
O        0.7308763139   -0.4530220738   -0.0028406191
H        0.9064716045    0.0740748690    0.7921149120
4    
Dihedral (135,) Energy -151.174552526
H       -0.9227229700   -0.0855229881   -0.8258302200
O       -0.7265508063   -0.4005988360    0.0698564107
O        0.7317484890   -0.3982956734   -0.0264704682
H        0.9239586874    0.0200857975    0.8267721775
4    
Dihedral (150,) Energy -151.174164445
H       -0.9355360558   -0.1461855538   -0.8455296970
O       -0.7271704887   -0.3405124067    0.0808528180
O        0.7317281455   -0.3398756286   -0.0443247374
H        0.9374118990   -0.0377581107    0.8533295163
4    
Dihedral (165,) Energy -151.173833384
H       -0.9437564422   -0.2085479176   -0.8563556961
O       -0.7279737192   -0.2785375822    0.0858392919
O        0.7318621176   -0.2788826508   -0.0564260647
H        0.9463015439   -0.0983635495    0.8712703689
4    
Dihedral (180,) Energy -151.173706135
H       -0.9456095674   -0.2714490015   -0.8573205725
O       -0.7281811430   -0.2157470484    0.0854117720
O        0.7311916165   -0.2164157123   -0.0631741725
H        0.9490325940   -0.1607200378    0.8794108730
