4    
Dihedral (-165,) Energy -151.169578268
H       -0.9447286020   -0.3300274699   -0.8480841366
O       -0.7285361171   -0.1550800995    0.0808039997
O        0.7308211750   -0.1517169713   -0.0650692433
H        0.9488767673   -0.2275076941    0.8766772568
4    
Dihedral (-150,) Energy -151.169903514
H       -0.9354878550   -0.3907656564   -0.8308276064
O       -0.7285100188   -0.0940051036    0.0687826547
O        0.7298805214   -0.0897395594   -0.0593581168
H        0.9405502329   -0.2898222964    0.8657313085
4    
Dihedral (-135,) Energy -151.170287012
H       -0.9215496774   -0.4488005295   -0.8050436204
O       -0.7287001509   -0.0354570785    0.0510077890
O        0.7291895029   -0.0296841193   -0.0476654003
H        0.9274935614   -0.3503902558    0.8460296460
4    
Dihedral (-120,) Energy -151.170505482
H       -0.9033248272   -0.5030856920   -0.7713762110
O       -0.7280647861    0.0194827669    0.0273744249
O        0.7277227757    0.0273696953   -0.0297753983
H        0.9101004376   -0.4080986701    0.8181050845
4    
Dihedral (-105,) Energy -151.170293504
H       -0.8840801597   -0.5526249510   -0.7296937896
O       -0.7273649983    0.0698447377   -0.0011579430
O        0.7262544023    0.0803696552   -0.0065436342
H        0.8916243557   -0.4619216838    0.7817237848
4    
Dihedral (-90,) Energy -151.169411042
H       -0.8638715808   -0.5966754640   -0.6825052789
O       -0.7258906611    0.1147184112   -0.0354312937
O        0.7240889546    0.1284871696    0.0229610510
H        0.8721067591   -0.5108625450    0.7393041290
4    
Dihedral (-75,) Energy -151.167738142
H       -0.8451155899   -0.6344922027   -0.6316412827
O       -0.7233525174    0.1532387415   -0.0756651196
O        0.7209491068    0.1708791349    0.0590458024
H        0.8539515884   -0.5539576191    0.6925896545
4    
Dihedral (-60,) Energy -151.165359268
H       -0.8307058566   -0.6654439343   -0.5791962659
O       -0.7187682772    0.1846574059   -0.1217520568
O        0.7158651019    0.2067757289    0.1016808816
H        0.8400424198   -0.5903218962    0.6435968219
4    
Dihedral (-45,) Energy -151.162599524
H       -0.8234006058   -0.6890767254   -0.5275172653
O       -0.7108545385    0.2084242158   -0.1730320928
O        0.7075609494    0.2355431667    0.1502669166
H        0.8331272339   -0.6192229274    0.5946117415
4    
Dihedral (-30,) Energy -151.159984263
H       -0.8249215367   -0.7052061746   -0.4781645569
O       -0.6984396537    0.2243668921   -0.2276122928
O        0.6948697317    0.2567992588    0.2029394704
H        0.8349244587   -0.6402919102    0.5471665722
4    
Dihedral (-15,) Energy -151.158104055
H       -0.8348954645   -0.7139354098   -0.4321495666
O       -0.6805413532    0.2326610339   -0.2832642914
O        0.6768076832    0.2704764385    0.2574646420
H        0.8450614469   -0.6535332684    0.5022779926
4    
Dihedral (0,) Energy -151.157419796
H       -0.8519229428   -0.7155188736   -0.3896997439
O       -0.6568466719    0.2336719265   -0.3378364937
O        0.6530589993    0.2767130276    0.3116650473
H        0.8621428154   -0.6591978076    0.4601998903
4    
Dihedral (15,) Energy -151.158104054
H       -0.8752019432   -0.7100898117   -0.3510788970
O       -0.6276609239    0.2276104089   -0.3896429848
O        0.6239268765    0.2755508194    0.3638420754
H        0.8853681907   -0.6574030616    0.4212089298
4    
Dihedral (30,) Energy -151.159984259
H       -0.9051366408   -0.6975574465   -0.3170520622
O       -0.5940716668    0.2144080843   -0.4372553646
O        0.5905009883    0.2667917508    0.4125807741
H        0.9151400397   -0.6479745090    0.3860560240
4    
Dihedral (45,) Energy -151.162599516
H       -0.9425087881   -0.6777318781   -0.2887491118
O       -0.5580341962    0.1938638054   -0.4793924689
O        0.5547404873    0.2501332411    0.4566257498
H        0.9522358950   -0.6305967491    0.3558451309
4    
Dihedral (60,) Energy -151.165359275
H       -0.9869248135   -0.6505733675   -0.2667565716
O       -0.5220960695    0.1659364490   -0.5151479004
O        0.5191927730    0.2254801533    0.4950775922
H        0.9962609216   -0.6051750125    0.3311560798
4    
Dihedral (75,) Energy -151.167738143
H       -0.8525854896    0.1218985501   -0.6680514988
O       -0.7179191034   -0.6029441059   -0.0348659964
O        0.7267553422   -0.5855075386    0.0958133174
H        0.8501821963    0.2022174868    0.6514308778
4    
Dihedral (90,) Energy -151.169411043
H       -0.8708764814    0.0788052858   -0.7147145232
O       -0.7209519453   -0.5605508945    0.0012261397
O        0.7291870719   -0.5469885623    0.0555718022
H        0.8690747482    0.1643988815    0.7022433259
4    
Dihedral (105,) Energy -151.170293505
H       -0.8905211167    0.0298660208   -0.7570785932
O       -0.7230258061   -0.5124320347    0.0307346585
O        0.7305696920   -0.5021150718    0.0212946500
H        0.8894101789    0.1203462127    0.7493765329
4    
Dihedral (120,) Energy -151.170505572
H       -0.9092519910   -0.0239694502   -0.7934698923
O       -0.7246342733   -0.4594258832    0.0538891765
O        0.7314102253   -0.4517374732   -0.0071613948
H        0.9089095145    0.0707989504    0.7910698289
4    
Dihedral (135,) Energy -151.170286845
H       -0.9255360343   -0.0816945423   -0.8226536396
O       -0.7261717960   -0.4024567521    0.0709115569
O        0.7321164229   -0.3967917430   -0.0299230250
H        0.9260253590    0.0166100228    0.8259926077
4    
Dihedral (150,) Energy -151.169903558
H       -0.9380087057   -0.1423002717   -0.8431786038
O       -0.7270707190   -0.3424327550    0.0820243325
O        0.7321339178   -0.3382128003   -0.0471180119
H        0.9393792115   -0.0413869543    0.8525997832
4    
Dihedral (165,) Energy -151.169578201
H       -0.9458002920   -0.2046594575   -0.8545567665
O       -0.7277855189   -0.2804527178    0.0872301017
O        0.7319334626   -0.2770867562   -0.0586369013
H        0.9480851250   -0.1021333451    0.8702911429
4    
Dihedral (180,) Energy -151.169453386
H       -0.9476483664   -0.2675972265   -0.8558981904
O       -0.7278806120   -0.2176047859    0.0871100725
O        0.7310972298   -0.2145615755   -0.0649460622
H        0.9508650487   -0.1645691355    0.8780621801
