4    
Dihedral (-165,) Energy -151.169578268
H       -0.9447283704   -0.3300278040   -0.8480843417
O       -0.7285363545   -0.1550802414    0.0808038604
O        0.7308210043   -0.1517167671   -0.0650687622
H        0.9488762206   -0.2275072935    0.8766778435
4    
Dihedral (-150,) Energy -151.169903514
H       -0.9354878551   -0.3907657549   -0.8308275782
O       -0.7285100987   -0.0940050914    0.0687826660
O        0.7298804440   -0.0897395239   -0.0593579571
H        0.9405500940   -0.2898221456    0.8657315058
4    
Dihedral (-135,) Energy -151.170287012
H       -0.9215496807   -0.4488005201   -0.8050436258
O       -0.7287001507   -0.0354570880    0.0510077919
O        0.7291895028   -0.0296841291   -0.0476654023
H        0.9274935646   -0.3503902459    0.8460296504
4    
Dihedral (-120,) Energy -151.170505482
H       -0.9033248272   -0.5030856920   -0.7713762110
O       -0.7280647861    0.0194827669    0.0273744249
O        0.7277227757    0.0273696953   -0.0297753984
H        0.9101004376   -0.4080986702    0.8181050845
4    
Dihedral (-105,) Energy -151.170293503
H       -0.8840801418   -0.5526249815   -0.7296937591
O       -0.7273649986    0.0698447690   -0.0011579614
O        0.7262544021    0.0803696882   -0.0065436191
H        0.8916243382   -0.4619217176    0.7817237575
4    
Dihedral (-90,) Energy -151.169411041
H       -0.8638715924   -0.5966755997   -0.6825054464
O       -0.7258908387    0.1147184540   -0.0354316235
O        0.7240887631    0.1284873147    0.0229609989
H        0.8721064438   -0.5108623481    0.7393041437
4    
Dihedral (-75,) Energy -151.167738141
H       -0.8451158034   -0.6344923485   -0.6316414004
O       -0.7233527630    0.1532388033   -0.0756655267
O        0.7209488541    0.1708792541    0.0590454986
H        0.8539512894   -0.5539573543    0.6925895285
4    
Dihedral (-60,) Energy -151.165359267
H       -0.8307061750   -0.6654439505   -0.5791963022
O       -0.7187687089    0.1846576040   -0.1217524623
O        0.7158646468    0.2067760836    0.1016806788
H        0.8400418736   -0.5903213372    0.6435969370
4    
Dihedral (-45,) Energy -151.162599524
H       -0.8234010396   -0.6890769889   -0.5275170910
O       -0.7108550418    0.2084241295   -0.1730323375
O        0.7075604384    0.2355433552    0.1502667230
H        0.8331268133   -0.6192225255    0.5946119352
4    
Dihedral (-30,) Energy -151.159984263
H       -0.8249217915   -0.7052066458   -0.4781643375
O       -0.6984400799    0.2243665481   -0.2276124587
O        0.6948692659    0.2567993253    0.2029394240
H        0.8349240716   -0.6402916510    0.5471669956
4    
Dihedral (-15,) Energy -151.158104055
H       -0.8348957488   -0.7139358493   -0.4321491499
O       -0.6805415309    0.2326606707   -0.2832644554
O        0.6768074509    0.2704763346    0.2574646027
H        0.8450610658   -0.6535332261    0.5022786026
4    
Dihedral (0,) Energy -151.157419796
H       -0.8519232492   -0.7155188121   -0.3896992343
O       -0.6568466430    0.2336719528   -0.3378364861
O        0.6530589728    0.2767130461    0.3116651725
H        0.8621424778   -0.6591977656    0.4602005750
4    
Dihedral (15,) Energy -151.158104054
H       -0.8752021921   -0.7100898472   -0.3510786006
O       -0.6276608955    0.2276102841   -0.3896431030
O        0.6239267507    0.2755507340    0.3638422109
H        0.8853677686   -0.6574031942    0.4212095927
4    
Dihedral (30,) Energy -151.159984259
H       -0.9051369094   -0.6975571269   -0.3170520469
O       -0.5940715318    0.2144082327   -0.4372556192
O        0.5905008110    0.2667918503    0.4125809617
H        0.9151395506   -0.6479745358    0.3860568044
4    
Dihedral (45,) Energy -151.162599516
H       -0.9425090037   -0.6777317629   -0.2887489518
O       -0.5580341508    0.1938637515   -0.4793925706
O        0.5547403066    0.2501333195    0.4566259022
H        0.9522355411   -0.6305968081    0.3558458201
4    
Dihedral (60,) Energy -151.165359276
H       -0.9869249900   -0.6505730521   -0.2667566195
O       -0.5220958632    0.1659364667   -0.5151481852
O        0.5191927863    0.2254801103    0.4950775126
H        0.9962606669   -0.6051752833    0.3311563675
4    
Dihedral (75,) Energy -151.167738142
H       -0.8525856066    0.1218997559   -0.6680513834
O       -0.7179198733   -0.6029429167   -0.0348657646
O        0.7267545046   -0.5855068671    0.0958144384
H        0.8501812860    0.2022182279    0.6514319233
4    
Dihedral (90,) Energy -151.169411042
H       -0.8708768943    0.0788063089   -0.7147143200
O       -0.7209528570   -0.5605498862    0.0012264301
O        0.7291861418   -0.5469878576    0.0555727049
H        0.8690737094    0.1643997077    0.7022441197
4    
Dihedral (105,) Energy -151.170293504
H       -0.8905214730    0.0298670278   -0.7570785823
O       -0.7230265972   -0.5124310415    0.0307347488
O        0.7305689118   -0.5021143633    0.0212953094
H        0.8894092584    0.1203470289    0.7493771240
4    
Dihedral (120,) Energy -151.170505572
H       -0.9092524357   -0.0239688456   -0.7934701112
O       -0.7246352048   -0.4594251922    0.0538891077
O        0.7314093220   -0.4517371659   -0.0071607926
H        0.9089083630    0.0707994165    0.7910703811
4    
Dihedral (135,) Energy -151.170286845
H       -0.9255366819   -0.0816940825   -0.8226535286
O       -0.7261727838   -0.4024562384    0.0709117611
O        0.7321154636   -0.3967914270   -0.0299222779
H        0.9260241687    0.0166103848    0.8259933824
4    
Dihedral (150,) Energy -151.169903558
H       -0.9380089731   -0.1423000105   -0.8431785752
O       -0.7270713780   -0.3424324447    0.0820244573
O        0.7321333198   -0.3382124830   -0.0471172830
H        0.9393782360   -0.0413865898    0.8526005823
4    
Dihedral (165,) Energy -151.169578200
H       -0.9458002619   -0.2046596167   -0.8545570108
O       -0.7277858588   -0.2804526283    0.0872299657
O        0.7319332321   -0.2770863608   -0.0586362339
H        0.9480844652   -0.1021327709    0.8702918790
4    
Dihedral (180,) Energy -151.169453386
H       -0.9476482473   -0.2675972562   -0.8558985161
O       -0.7278809621   -0.2176046689    0.0871098489
O        0.7310969564   -0.2145611693   -0.0649455472
H        0.9508642296   -0.1645685822    0.8780628144
