12   
Dihedral (-150, -120) Energy -194.290726223
C        1.6654632456   -0.2715254024    0.6804208174
C        0.7343609948    0.3290295230   -0.3850281481
H        1.5062370357    0.1856463057    1.6658985071
H        2.7175011044   -0.1214217341    0.4140454436
H        1.4946634417   -1.3501300780    0.7819879246
H        0.9559803058    1.3929555703   -0.5420610853
C       -0.7515780054    0.1340919458   -0.0602770467
H        0.9101814624   -0.1732859855   -1.3445270250
H       -1.1286935642    0.9336357304    0.5920646425
H       -0.8886684637   -0.8172844440    0.4701460996
O       -1.5278941615    0.0424806747   -1.2981922446
H       -2.1966185529    0.7514101566   -1.3456848125
12   
Dihedral (-150, -90) Energy -194.291893827
C        1.6615741178   -0.2706996135    0.6675393587
C        0.7079031672    0.2861777674   -0.4025322157
H        1.5444649547    0.2497428059    1.6270567422
H        2.7072166534   -0.1624669646    0.3591747164
H        1.4700208756   -1.3365529821    0.8405634208
H        0.9537510354    1.3328912016   -0.6300530177
C       -0.7715887801    0.1507383688   -0.0119361396
H        0.8388312445   -0.2803449259   -1.3331278821
H       -1.1009168584    0.9828773498    0.6265211879
H       -0.9134499563   -0.7757618569    0.5542860152
O       -1.6386229888   -0.0016928640   -1.1784968888
H       -1.9371558127    0.8722924768   -1.4988303396
12   
Dihedral (-150, -60) Energy -194.292574967
C        1.6560466973   -0.2746112516    0.6410905178
C        0.6695754093    0.2932216998   -0.3933810529
H        1.5623440148    0.2326817703    1.6099048967
H        2.6920969809   -0.1569546606    0.3052683576
H        1.4731806399   -1.3432821793    0.8040490383
H        0.9116341162    1.3417400845   -0.6178483038
C       -0.7979897092    0.1625618141    0.0449893169
H        0.7749601718   -0.2689556219   -1.3309786071
H       -1.0938874558    1.0006269638    0.6937898274
H       -0.9380093490   -0.7620162892    0.6120781342
O       -1.7182218206    0.0205825985   -1.0783715777
H       -1.6540655423    0.8047262740   -1.6614009898
12   
Dihedral (-150, -30) Energy -194.290955233
C        1.6433002349   -0.2867308315    0.6129635580
C        0.6392186050    0.3229523421   -0.3798479849
H        1.5777884252    0.1940563441    1.5971344577
H        2.6722341903   -0.1706760289    0.2556375438
H        1.4507363159   -1.3571549560    0.7494147955
H        0.8853017607    1.3748652633   -0.5788089255
C       -0.8200373604    0.1942456030    0.0872981521
H        0.7282681200   -0.2158033337   -1.3348866568
H       -1.0916104708    1.0331157548    0.7442228277
H       -0.9557957312   -0.7312802583    0.6556045859
O       -1.7730811557    0.0965101005   -1.0149814400
H       -1.4342360459    0.5814540200   -1.7940412036
12   
Dihedral (-150, 0) Energy -194.289443758
C        1.6296349063   -0.3023554164    0.5933939525
C        0.6319358446    0.3694081087   -0.3646955740
H        1.5713228799    0.1313134850    1.5995004798
H        2.6594687478   -0.1818357853    0.2403135101
H        1.4231608343   -1.3754157962    0.6791690391
H        0.8927602372    1.4239985764   -0.5203586203
C       -0.8270728550    0.2387950122    0.1060666338
H        0.7189830704   -0.1266297235   -1.3448223546
H       -1.0983100887    1.0652282056    0.7735397039
H       -0.9497920077   -0.6966385718    0.6676849073
O       -1.7983808144    0.2063348870   -0.9849762204
H       -1.3438493867    0.2747790866   -1.8469279740
12   
Dihedral (-150, 30) Energy -194.290413160
C        1.6220595740   -0.3189710093    0.5810550895
C        0.6456133584    0.4169925149   -0.3506444815
H        1.5633736712    0.0665654725    1.6066361083
H        2.6572611756   -0.2015392410    0.2428818659
H        1.3957930502   -1.3912464441    0.6149907708
H        0.9233281329    1.4730995116   -0.4544331799
C       -0.8208166047    0.2855807500    0.1008312953
H        0.7370172424   -0.0246609567   -1.3566558631
H       -1.1089073188    1.0958357579    0.7758339497
H       -0.9459150994   -0.6631312782    0.6463921156
O       -1.7804904799    0.3242716956   -0.9966036850
H       -1.3728110075   -0.0404545309   -1.8070301825
12   
Dihedral (-150, 60) Energy -194.291579356
C        1.6249655805   -0.3319495269    0.5791607478
C        0.6749720349    0.4542185302   -0.3389422443
H        1.5512289918    0.0086268738    1.6197865058
H        2.6680987036   -0.2128059679    0.2666356581
H        1.3882254419   -1.4029294827    0.5630334998
H        0.9601676480    1.5122324174   -0.3844024165
C       -0.8034088834    0.3187427831    0.0734811504
H        0.7778898274    0.0674843600   -1.3645546801
H       -1.1060449142    1.1180908590    0.7534331951
H       -0.9543978126   -0.6393622124    0.5971577438
O       -1.7259389246    0.4181328705   -1.0507882298
H       -1.5326812477   -0.2930406019   -1.6948036993
12   
Dihedral (-150, 90) Energy -194.290516386
C        1.6341294341   -0.3332475555    0.5907731122
C        0.7106803271    0.4774603952   -0.3335738734
H        1.5312721518   -0.0226241190    1.6385456241
H        2.6858899037   -0.2057098266    0.3118950786
H        1.4002198879   -1.4039997065    0.5376159213
H        0.9934198389    1.5371042316   -0.3356647206
C       -0.7793649650    0.3305591716    0.0269447558
H        0.8355215966    0.1240935987   -1.3665857454
H       -1.0967978355    1.1142171212    0.7202740137
H       -0.9532435441   -0.6381602848    0.5202433920
O       -1.6479368790    0.4652803290   -1.1407513849
H       -1.7917927754   -0.4094055937   -1.5518515992
12   
Dihedral (-150, 120) Energy -194.289309899
C        1.6457404956   -0.3224160529    0.6102333049
C        0.7397532799    0.4819890434   -0.3368415963
H        1.5091118059   -0.0204453466    1.6568123316
H        2.7031938811   -0.1787122747    0.3623088577
H        1.4284360137   -1.3958144699    0.5424001901
H        1.0121227519    1.5444441481   -0.3250726792
C       -0.7548596234    0.3153881246   -0.0200458120
H        0.8874760351    0.1329922906   -1.3666947522
H       -1.0958373906    1.0727294306    0.6953848971
H       -0.9264425449   -0.6711855072    0.4356355993
O       -1.5543567891    0.4527390010   -1.2395401178
H       -2.0627149687   -0.3622262837   -1.4099145426
12   
Dihedral (-135, -120) Energy -194.288511624
C        1.6636769254   -0.3207170123    0.6473250114
C        0.7360482186    0.3933817449   -0.3492914941
H        1.5320239803    0.0579507383    1.6693508479
H        2.7163432217   -0.1809341067    0.3769946177
H        1.4594713957   -1.3980995619    0.6617696705
H        0.9865078048    1.4607443315   -0.4111766108
C       -0.7589318242    0.2000401013   -0.0351331432
H        0.8932492481   -0.0263458908   -1.3504294199
H       -1.1825222731    1.0789352705    0.4689301758
H       -0.8864764262   -0.6581470197    0.6369662483
O       -1.5006037584   -0.1161010273   -1.2590034969
H       -2.1889675203    0.5531714708   -1.4333814917
12   
Dihedral (-135, -90) Energy -194.289704765
C        1.6590397171   -0.3242115280    0.6371030209
C        0.7153449403    0.3557790551   -0.3691821317
H        1.5579533525    0.1057674183    1.6420779522
H        2.7064004084   -0.2138579254    0.3346534658
H        1.4392649505   -1.3961115554    0.7086154189
H        0.9921901732    1.4108456305   -0.4999041318
C       -0.7736655307    0.2188069265    0.0096818625
H        0.8307806936   -0.1284162612   -1.3471821947
H       -1.1535168613    1.1232547616    0.5048100600
H       -0.8970453815   -0.6148722401    0.7084348352
O       -1.6097635135   -0.1480735574   -1.1330834436
H       -1.9345151286    0.6533440082   -1.5891861858
12   
Dihedral (-135, -60) Energy -194.290340132
C        1.6494602374   -0.3249206290    0.6088086105
C        0.6761595038    0.3685387692   -0.3601506173
H        1.5745575097    0.0916441598    1.6214123880
H        2.6878013622   -0.2082638706    0.2790924592
H        1.4324524102   -1.3977309599    0.6711277875
H        0.9473574800    1.4261898246   -0.4797553851
C       -0.8020303294    0.2269332205    0.0617259433
H        0.7736002762   -0.1032760945   -1.3474316856
H       -1.1581075329    1.1336547003    0.5725704046
H       -0.9177453989   -0.6103735610    0.7553116129
O       -1.6870146383   -0.1242517497   -1.0454647343
H       -1.6453405527    0.5688908466   -1.7359371357
12   
Dihedral (-135, -30) Energy -194.288584165
C        1.6337353003   -0.3345614707    0.5788247919
C        0.6475448411    0.4001619135   -0.3455913251
H        1.5841353553    0.0521797111    1.6043777373
H        2.6660267059   -0.2184693482    0.2306438184
H        1.4053750536   -1.4060965621    0.6134260859
H        0.9224019127    1.4592546428   -0.4320075216
C       -0.8239662337    0.2563021749    0.1012167970
H        0.7373444089   -0.0367609051   -1.3515278044
H       -1.1594787235    1.1635906070    0.6233570587
H       -0.9329367196   -0.5836714576    0.7941342498
O       -1.7439371121   -0.0491446456   -0.9921505985
H       -1.4123146964    0.3378708255   -1.8267940328
12   
Dihedral (-135, 0) Energy -194.287009809
C        1.6165452064   -0.3500017672    0.5529189466
C        0.6408315271    0.4425891637   -0.3330067361
H        1.5696712702   -0.0132496626    1.5959018755
H        2.6507525772   -0.2292292188    0.2122015020
H        1.3753320818   -1.4192298087    0.5361361293
H        0.9333845657    1.4991032080   -0.3737235455
C       -0.8314269362    0.3025161089    0.1168681911
H        0.7301461534    0.0581914202   -1.3617724579
H       -1.1651478918    1.2013396779    0.6481680421
H       -0.9277110670   -0.5448720912    0.8080427486
O       -1.7746060297    0.0611673038   -0.9736368991
H       -1.3054223831    0.0274583867   -1.8294681917
12   
Dihedral (-135, 30) Energy -194.288126730
C        1.6047511923   -0.3637811015    0.5351759943
C        0.6506678642    0.4850692557   -0.3202983075
H        1.5533779914   -0.0758414607    1.5925138329
H        2.6441229109   -0.2441804135    0.2100553120
H        1.3490059808   -1.4281176931    0.4681005689
H        0.9582315390    1.5381188113   -0.3043014867
C       -0.8296647361    0.3459414143    0.1067929067
H        0.7432048152    0.1648338656   -1.3702192214
H       -1.1804883421    1.2321036171    0.6416811530
H       -0.9317358915   -0.5139549452    0.7871109197
O       -1.7590616163    0.1729493844   -1.0052748192
H       -1.3126919166   -0.2862962931   -1.7439919821
12   
Dihedral (-135, 60) Energy -194.289509894
C        1.6059521981   -0.3713383937    0.5301985567
C        0.6754326405    0.5200968320   -0.3083320638
H        1.5361467344   -0.1291167211    1.5981021903
H        2.6526591344   -0.2469379677    0.2312433643
H        1.3463844257   -1.4310462433    0.4134064890
H        0.9848723377    1.5699412008   -0.2315297683
C       -0.8169115603    0.3729746592    0.0725098297
H        0.7800090632    0.2554773086   -1.3705754656
H       -1.1838714281    1.2504528749    0.6087356728
H       -0.9491190847   -0.4991136448    0.7327777095
O       -1.7033346111    0.2581857585   -1.0808060522
H       -1.4560538198   -0.5301631650   -1.6057226043
12   
Dihedral (-135, 90) Energy -194.288581223
C        1.6212147271   -0.3689889556    0.5380526798
C        0.7082278296    0.5410298149   -0.3006978666
H        1.5221949328   -0.1592912571    1.6108252141
H        2.6749248114   -0.2304092622    0.2713196870
H        1.3727692100   -1.4266456522    0.3824999692
H        1.0063961978    1.5899906532   -0.1795541649
C       -0.7934131479    0.3746240114    0.0272944441
H        0.8344140712    0.3086314523   -1.3662188993
H       -1.1745003590    1.2392643172    0.5767680474
H       -0.9495543061   -0.5128398877    0.6588589481
O       -1.6245017412    0.2921509594   -1.1738826868
H       -1.7146108914   -0.6396409083   -1.4546871811
12   
Dihedral (-135, 120) Energy -194.287393467
C        1.6357017679   -0.3571978551    0.5563666838
C        0.7321398165    0.5451968136   -0.3009258445
H        1.5059733818   -0.1576963486    1.6279715990
H        2.6936544066   -0.2000298115    0.3180449474
H        1.4077902649   -1.4168206567    0.3846204221
H        1.0139061704    1.5971467122   -0.1671024644
C       -0.7713698335    0.3544300465   -0.0136279512
H        0.8798478979    0.3144143731   -1.3628247683
H       -1.1746566456    1.1953143066    0.5617158219
H       -0.9261276784   -0.5569653401    0.5819130819
O       -1.5300771968    0.2726182335   -1.2658220359
H       -1.9964113017   -0.5820243649   -1.3296985403
12   
Dihedral (-120, -120) Energy -194.287069780
C        1.6537899963   -0.3706284712    0.6086941060
C        0.7385220362    0.4493465885   -0.3153120085
H        1.5354704484   -0.0733202378    1.6586052276
H        2.7086387888   -0.2365267106    0.3432539727
H        1.4212649686   -1.4398318071    0.5355342019
H        1.0131526246    1.5116789271   -0.2641427342
C       -0.7644089476    0.2624930751   -0.0139808321
H        0.8872439494    0.1323691204   -1.3543086456
H       -1.2247970470    1.2040100768    0.3135520069
H       -0.8983675612   -0.4671410473    0.7941890207
O       -1.4632618613   -0.2734487247   -1.1868528433
H       -2.1628192112    0.3386824364   -1.4835106377
12   
Dihedral (-120, -90) Energy -194.288260342
C        1.6518371735   -0.3655193845    0.6017669489
C        0.7169114269    0.4317108364   -0.3231136274
H        1.5542353521   -0.0405108698    1.6455005169
H        2.7011698491   -0.2395995681    0.3118422338
H        1.4163058139   -1.4356980276    0.5608669518
H        1.0018928631    1.4927402078   -0.3140057664
C       -0.7796681635    0.2650132391    0.0317067991
H        0.8399124860    0.0763099462   -1.3538389664
H       -1.2208152593    1.2121588700    0.3715898019
H       -0.8928872525   -0.4596014169    0.8438779060
O       -1.5589541553   -0.3015777101   -1.0699548617
H       -1.9074615746    0.4127112737   -1.6390955875
12   
Dihedral (-120, -60) Energy -194.288943755
C        1.6378488867   -0.3684723184    0.5719679412
C        0.6779963194    0.4405416670   -0.3172101605
H        1.5681921476   -0.0531574369    1.6206037027
H        2.6790925423   -0.2407747330    0.2551215126
H        1.3987462482   -1.4375319480    0.5266939285
H        0.9641226409    1.5007445525   -0.3015905196
C       -0.8088288512    0.2765942933    0.0823716414
H        0.7828184704    0.0968298410   -1.3553796549
H       -1.2276177157    1.2304301555    0.4356422572
H       -0.9121854000   -0.4492796458    0.8929268387
O       -1.6399708483   -0.2753706973   -0.9843775087
H       -1.6104822238    0.3163429937   -1.7637362661
12   
Dihedral (-120, -30) Energy -194.287186830
C        1.6177327476   -0.3811126454    0.5374998583
C        0.6525934692    0.4643639877   -0.3110440290
H        1.5733726356   -0.0882678387    1.5936282608
H        2.6542189408   -0.2614793239    0.2025904336
H        1.3610257909   -1.4450793228    0.4738225037
H        0.9501818918    1.5198964049   -0.2665397355
C       -0.8296062847    0.3108394491    0.1119248609
H        0.7508504676    0.1577353643   -1.3632224339
H       -1.2253037263    1.2719085236    0.4701624661
H       -0.9278342730   -0.4111395447    0.9279496666
O       -1.7015560591   -0.2001283814   -0.9438567721
H       -1.3633749228    0.0747777182   -1.8189753874
12   
Dihedral (-120, 0) Energy -194.285813212
C        1.5977022914   -0.3955036289    0.5082823774
C        0.6452640919    0.5016455458   -0.2993580461
H        1.5569696507   -0.1499297089    1.5763021374
H        2.6357085822   -0.2746445324    0.1786714803
H        1.3278989979   -1.4527269831    0.3986948258
H        0.9600209121    1.5488575043   -0.2063623132
C       -0.8389720180    0.3548965486    0.1205518861
H        0.7429707904    0.2565562629   -1.3686136617
H       -1.2347257079    1.3095249913    0.4860445350
H       -0.9271543472   -0.3729929685    0.9369910715
O       -1.7314004043   -0.0947372395   -0.9475765423
H       -1.2316357372   -0.2330571678   -1.7749725921
12   
Dihedral (-120, 30) Energy -194.287239815
C        1.5855060845   -0.4072097747    0.4850526126
C        0.6543336576    0.5412674742   -0.2870350020
H        1.5388123225   -0.2119230462    1.5632023247
H        2.6280878412   -0.2865540931    0.1702047008
H        1.3048477337   -1.4558769404    0.3257033723
H        0.9822617429    1.5777274240   -0.1337758463
C       -0.8372725706    0.3959157067    0.1060354058
H        0.7520599830    0.3631738040   -1.3684594471
H       -1.2485933083    1.3395754661    0.4731022678
H       -0.9360629822   -0.3453472405    0.9135171513
O       -1.7120405945    0.0132984056   -1.0000000097
H       -1.2167134631   -0.5291737431   -1.6454298035
12   
Dihedral (-120, 60) Energy -194.288875832
C        1.5911103473   -0.4101751037    0.4747885341
C        0.6791946402    0.5764411303   -0.2732859849
H        1.5241792583   -0.2648869018    1.5600258389
H        2.6404037347   -0.2810325549    0.1866242938
H        1.3123304332   -1.4505505654    0.2625332041
H        1.0044696383    1.6030771298   -0.0591756500
C       -0.8223181949    0.4196702186    0.0726092274
H        0.7882640565    0.4505909266   -1.3589879790
H       -1.2450640359    1.3564070649    0.4413435461
H       -0.9538595068   -0.3377038417    0.8610282999
O       -1.6555589485    0.0945182489   -1.0820860552
H       -1.3571670653   -0.7510515837   -1.4754328115
12   
Dihedral (-120, 90) Energy -194.288096803
C        1.6075444406   -0.4043221960    0.4786657101
C        0.7073908672    0.5971175757   -0.2647713197
H        1.5088380605   -0.2960648904    1.5661661890
H        2.6634620323   -0.2562201963    0.2256123218
H        1.3463457901   -1.4395116469    0.2227866630
H        1.0152922189    1.6193635126   -0.0079822619
C       -0.8014088817    0.4181685033    0.0276866578
H        0.8392072151    0.5001942756   -1.3493730740
H       -1.2342144266    1.3464854429    0.4093295053
H       -0.9613368687   -0.3587669600    0.7895090750
O       -1.5774922713    0.1239393097   -1.1784741913
H       -1.6238125348   -0.8418669185   -1.3224763099
12   
Dihedral (-120, 120) Energy -194.286909273
C        1.6291148142   -0.3896586710    0.4937959337
C        0.7299795973    0.6016348647   -0.2642695320
H        1.5037911167   -0.2919515511    1.5797408179
H        2.6878219048   -0.2211611762    0.2662401760
H        1.3906642857   -1.4258443398    0.2215888926
H        1.0159034499    1.6276759640    0.0021611380
C       -0.7780393294    0.3939851216   -0.0067763209
H        0.8810505939    0.5041359246   -1.3454911325
H       -1.2322690140    1.3029275615    0.4033260950
H       -0.9364645018   -0.4122268998    0.7232601569
O       -1.4790296195    0.0964574480   -1.2612325592
H       -1.9130113708   -0.7764295980   -1.2167379815
12   
Dihedral (-105, -120) Energy -194.287342481
C        1.6401343591   -0.4172528717    0.5645820082
C        0.7445619957    0.5000250013   -0.2836609379
H        1.5206688461   -0.2062781377    1.6347753758
H        2.6987789654   -0.2831978233    0.3142874117
H        1.3861003739   -1.4711690593    0.3997048632
H        1.0360290989    1.5458094964   -0.1116173264
C       -0.7612632962    0.3231325236    0.0021975154
H        0.8941988468    0.2980205399   -1.3505624268
H       -1.2485942642    1.2987256981    0.1331057884
H       -0.9128719068   -0.2477367732    0.9261994906
O       -1.4078795455   -0.4219798916   -1.0835340661
H       -2.1108369044    0.1137278681   -1.4966051734
12   
Dihedral (-105, -90) Energy -194.288554394
C        1.6336581688   -0.4102731159    0.5505509195
C        0.7148296987    0.4938948801   -0.2869905892
H        1.5449211602   -0.1790561884    1.6194411229
H        2.6850681064   -0.2845025534    0.2678062293
H        1.3710000450   -1.4658745162    0.4121685016
H        1.0090225386    1.5426377006   -0.1385501011
C       -0.7844000853    0.3162396545    0.0455016887
H        0.8459197772    0.2754547566   -1.3542397680
H       -1.2704536050    1.2885863019    0.2072565774
H       -0.9063614679   -0.2689215333    0.9617737427
O       -1.4992678581   -0.4409173034   -0.9832640885
H       -1.8530711235    0.1683007255   -1.6605714010
12   
Dihedral (-105, -60) Energy -194.289334782
C        1.6185360912   -0.4142379230    0.5218316377
C        0.6800751118    0.5005772829   -0.2823410782
H        1.5670854805   -0.1826979747    1.5927682966
H        2.6610936589   -0.2983952052    0.2044619785
H        1.3400596981   -1.4667575162    0.3915945838
H        0.9808739678    1.5465289565   -0.1311864300
C       -0.8111496574    0.3302172616    0.0915689117
H        0.7938944040    0.2957335599   -1.3560048988
H       -1.2795114823    1.3103865180    0.2668593506
H       -0.9209299192   -0.2569677701    1.0065273349
O       -1.5776705869   -0.4115848514   -0.9061693233
H       -1.5411830662    0.0607799996   -1.7625680606
12   
Dihedral (-105, -30) Energy -194.287818907
C        1.5973113222   -0.4255332633    0.4877343026
C        0.6555379792    0.5236267745   -0.2717925161
H        1.5692435302   -0.2210250970    1.5646167074
H        2.6348490272   -0.3141529171    0.1529652776
H        1.3031495347   -1.4711490140    0.3372096988
H        0.9695385208    1.5600346379   -0.0889436321
C       -0.8320609733    0.3656382459    0.1212072164
H        0.7611549168    0.3648963814   -1.3557389895
H       -1.2790833097    1.3538139538    0.3032378294
H       -0.9364223775   -0.2189606455    1.0395774379
O       -1.6401600809   -0.3343686239   -0.8752881646
H       -1.2784641530   -0.1740927222   -1.7691669903
12   
Dihedral (-105, 0) Energy -194.286724973
C        1.5746664959   -0.4382122707    0.4547488693
C        0.6487065725    0.5582753969   -0.2619490372
H        1.5433164293   -0.2845838284    1.5397628800
H        2.6148837396   -0.3222160857    0.1301542543
H        1.2728922994   -1.4740137053    0.2561585539
H        0.9821426631    1.5789106123   -0.0308917043
C       -0.8411059258    0.4121368104    0.1243469906
H        0.7501656334    0.4604152912   -1.3537409982
H       -1.2863374534    1.3963803255    0.3116719195
H       -0.9394804530   -0.1769176368    1.0444475999
O       -1.6675626724   -0.2300662216   -0.8984189712
H       -1.1256416522   -0.4658514475   -1.6759300923
12   
Dihedral (-105, 30) Energy -194.288361531
C        1.5608045257   -0.4463958404    0.4279322814
C        0.6572063272    0.5967357101   -0.2504141335
H        1.5163413303   -0.3480405037    1.5189616840
H        2.6065194352   -0.3271492372    0.1230387162
H        1.2544914191   -1.4698387525    0.1751170697
H        1.0017751857    1.5991042214    0.0385078183
C       -0.8388954698    0.4507232087    0.1064127507
H        0.7603124933    0.5566089590   -1.3441870961
H       -1.2965187824    1.4251998577    0.2958675273
H       -0.9504097767   -0.1536047577    1.0188256175
O       -1.6466474923   -0.1288659199   -0.9659023351
H       -1.1022229094   -0.7389143283   -1.5027718409
12   
Dihedral (-105, 60) Energy -194.290110997
C        1.5761182143   -0.4389934896    0.4153969778
C        0.6826922740    0.6319364304   -0.2334816155
H        1.5080943179   -0.3947929920    1.5091212640
H        2.6278310054   -0.3024724528    0.1397880334
H        1.2825750151   -1.4511190156    0.1059421880
H        1.0200709137    1.6212381524    0.1054910651
C       -0.8193643652    0.4706765409    0.0865983032
H        0.7936251927    0.6323553400   -1.3253890415
H       -1.2838949800    1.4404944505    0.2773790840
H       -0.9584305323   -0.1496221480    0.9852514928
O       -1.5949771287   -0.0615315465   -1.0316528362
H       -1.2530714652   -0.9445745249   -1.2813593037
12   
Dihedral (-105, 90) Energy -194.289422718
C        1.6410414789   -0.4055092998    0.3538294471
C        0.7121582968    0.6611464588   -0.2506346282
H        1.5896383593   -0.3961161915    1.4497607742
H        2.6851117965   -0.2358162099    0.0674323956
H        1.3659217849   -1.4133439809    0.0155384047
H        1.0308305098    1.6494151021    0.1093852764
C       -0.7793423211    0.4583016740    0.0865212497
H        0.7974039195    0.6855961824   -1.3433502731
H       -1.2516611203    1.4196361252    0.3061168694
H       -0.9021048123   -0.1824504482    0.9716342634
O       -1.5435186167   -0.0614628645   -1.0493336802
H       -1.5432087695   -1.0390485014   -1.0412885379
12   
Dihedral (-105, 120) Energy -194.288260262
C        1.6677853985   -0.3884323129    0.3656648115
C        0.7322754075    0.6653068381   -0.2498730517
H        1.5972680148   -0.3868966396    1.4607712497
H        2.7137092865   -0.1991410225    0.0987074142
H        1.4126058211   -1.3962065458    0.0135897917
H        1.0256049204    1.6582634179    0.1184135241
C       -0.7577343461    0.4306583568    0.0579335238
H        0.8335682629    0.6901781038   -1.3407194231
H       -1.2501686669    1.3775575559    0.3075309838
H       -0.8795192682   -0.2433614707    0.9171493398
O       -1.4450587058   -0.0960752489   -1.1270237032
H       -1.8360028163   -0.9712369972   -0.9438125538
12   
Dihedral (-90, -120) Energy -194.289267990
C        1.6498660305   -0.4140890426    0.4707102343
C        0.7150186375    0.5833896283   -0.2308343837
H        1.5429545521   -0.3490185793    1.5607260316
H        2.6999052612   -0.2190311199    0.2242491174
H        1.4176915492   -1.4422791511    0.1696417046
H        0.9669031711    1.6013954707    0.1016930177
C       -0.7729571556    0.3203199322    0.0484674671
H        0.8600718912    0.5566303653   -1.3172149671
H       -1.3343726154    1.2647983086    0.0465312654
H       -0.9060048869   -0.1431888822    1.0335633630
O       -1.3247845883   -0.5942486321   -0.9563144429
H       -2.0560161638   -0.1686683355   -1.4416370313
12   
Dihedral (-90, -90) Energy -194.290517494
C        1.6184202986   -0.4431903945    0.4940474199
C        0.7174353531    0.5558355538   -0.2479658037
H        1.5324950851   -0.3126268296    1.5798949959
H        2.6721367430   -0.3126197747    0.2223200558
H        1.3321203363   -1.4739635830    0.2544667069
H        1.0123153581    1.5784516102    0.0305829936
C       -0.7789674290    0.3633253682    0.0590765695
H        0.8597125577    0.4723022352   -1.3332847912
H       -1.3059950735    1.3281274162    0.0454443301
H       -0.9160974194   -0.0753322106    1.0518734144
O       -1.4159955992   -0.5699866362   -0.8710725311
H       -1.7653871592   -0.0829970520   -1.6426936654
12   
Dihedral (-90, -60) Energy -194.291450582
C        1.5971010141   -0.4497517130    0.4664921555
C        0.6831005875    0.5606952405   -0.2440390658
H        1.5502497288   -0.3163151047    1.5540523084
H        2.6423588656   -0.3336118517    0.1583334484
H        1.2880139055   -1.4767965114    0.2394436066
H        0.9917738018    1.5790802512    0.0329532155
C       -0.8074465300    0.3817787504    0.1006655432
H        0.8059658107    0.4905588706   -1.3345968879
H       -1.3189082968    1.3565259900    0.1007418801
H       -0.9322937991   -0.0600917305    1.0921541725
O       -1.4971603277   -0.5341666286   -0.8037248127
H       -1.4420512376   -0.1898545142   -1.7181128151
12   
Dihedral (-90, -30) Energy -194.290131680
C        1.5694382263   -0.4608596310    0.4309011248
C        0.6562999967    0.5807589680   -0.2353879856
H        1.5432396097   -0.3545740192    1.5217660536
H        2.6103820568   -0.3491620814    0.1070603649
H        1.2452757627   -1.4793032670    0.1857719408
H        0.9834826607    1.5853330824    0.0676717287
C       -0.8317218467    0.4195021035    0.1253843594
H        0.7666165038    0.5522713460   -1.3305222190
H       -1.3222597679    1.4040342675    0.1315715256
H       -0.9518823174   -0.0197934266    1.1196432416
O       -1.5628700947   -0.4580450774   -0.7863923004
H       -1.1655651493   -0.4130435683   -1.6786105363
12   
Dihedral (-90, 0) Energy -194.289117416
C        1.5420485072   -0.4699960906    0.4000526120
C        0.6499506295    0.6154991873   -0.2250094753
H        1.5042091537   -0.4165222169    1.4942511708
H        2.5874940318   -0.3544994003    0.0928986817
H        1.2145791856   -1.4749260481    0.1053860853
H        0.9991046648    1.5986054504    0.1202200573
C       -0.8408355016    0.4720302984    0.1266479743
H        0.7571205610    0.6346750000   -1.3202241366
H       -1.3248043701    1.4560379653    0.1354118079
H       -0.9589752898    0.0316210565    1.1241872447
O       -1.5919165396   -0.3539407677   -0.8198793917
H       -1.0031089717   -0.6792942206   -1.5283345017
12   
Dihedral (-90, 30) Energy -194.290658320
C        1.5288480076   -0.4745211177    0.3697443043
C        0.6588039032    0.6515385777   -0.2150856913
H        1.4714942633   -0.4793366583    1.4644964873
H        2.5804299043   -0.3536810727    0.0870506702
H        1.2046710584   -1.4631126259    0.0176569709
H        1.0135263046    1.6105595002    0.1876497726
C       -0.8384289520    0.5050137669    0.1035070561
H        0.7759663173    0.7209810764   -1.3054035783
H       -1.3318086675    1.4806891794    0.1157226757
H       -0.9707166563    0.0479229440    1.0953178169
O       -1.5720292228   -0.2645296287   -0.9000491710
H       -0.9813923422   -0.9259619722   -1.3132704082
12   
Dihedral (-90, 60) Energy -194.292343257
C        1.5391131153   -0.4700922851    0.3522296502
C        0.6814244504    0.6805366286   -0.2019683379
H        1.4498204801   -0.5327459911    1.4435167821
H        2.5982978945   -0.3322954739    0.1083134660
H        1.2329436569   -1.4402949480   -0.0626472227
H        1.0221864690    1.6206496270    0.2549701861
C       -0.8227956320    0.5179737127    0.0697066263
H        0.8183181153    0.7934589715   -1.2846242692
H       -1.3186454916    1.4913361954    0.0832626389
H       -0.9903288596    0.0398452485    1.0471030397
O       -1.5198276395   -0.2049698552   -0.9910611928
H       -1.1402569311   -1.1024613504   -1.0874676090
12   
Dihedral (-90, 90) Energy -194.291747906