4    
Dihedral (-165,) Energy -9.054548876
H       -0.9741161659   -0.3294661563   -0.8556858949
O       -0.7073394480   -0.1573418909    0.0564288993
O        0.7096419899   -0.1517875498   -0.0405744777
H        0.9782471518   -0.2257363878    0.8841594376
4    
Dihedral (-150,) Energy -9.054213733
H       -0.9666759274   -0.3890832222   -0.8397203455
O       -0.7075108867   -0.0974803488    0.0441774298
O        0.7089168788   -0.0909908743   -0.0345106030
H        0.9717034631   -0.2867775395    0.8743814830
4    
Dihedral (-135,) Energy -9.053721659
H       -0.9547930102   -0.4459397970   -0.8157036304
O       -0.7072397616   -0.0402219160    0.0262358963
O        0.7077835089   -0.0322078929   -0.0225199054
H        0.9606827907   -0.3459623788    0.8563156038
4    
Dihedral (-120,) Energy -9.053101809
H       -0.9388438550   -0.4990433057   -0.7842376755
O       -0.7063734965    0.0134266241    0.0029616372
O        0.7061045221    0.0235211940   -0.0048547506
H        0.9455463573   -0.4022364971    0.8304587532
4    
Dihedral (-105,) Energy -9.052305337
H       -0.9196441139   -0.5475665425   -0.7462348861
O       -0.7048220689    0.0626004522   -0.0253614007
O        0.7038029168    0.0753058055    0.0182909364
H        0.9270967939   -0.4546716998    0.7976333148
4    
Dihedral (-90,) Energy -9.051207979
H       -0.8984938683   -0.5907522885   -0.7027963700
O       -0.7025159870    0.1064790638   -0.0586877226
O        0.7008214258    0.1223241639    0.0469558797
H        0.9066219574   -0.5023829239    0.7588561774
4    
Dihedral (-75,) Energy -9.049681308
H       -0.8777212640   -0.6278612738   -0.6555348302
O       -0.6990419893    0.1442126065   -0.0972835866
O        0.6967592197    0.1637520730    0.0814921859
H        0.8864375615   -0.5444353904    0.7156541953
4    
Dihedral (-60,) Energy -9.047704260
H       -0.8607095350   -0.6581569353   -0.6066840515
O       -0.6935407800    0.1749195838   -0.1413757059
O        0.6907699899    0.1987232118    0.1222161999
H        0.8699138531   -0.5798178450    0.6701715218
4    
Dihedral (-45,) Energy -9.045455161
H       -0.8507560586   -0.6811744358   -0.5586836304
O       -0.6848478249    0.1980248988   -0.1903655124
O        0.6816983088    0.2265870766    0.1685922048
H        0.8603391027   -0.6077695243    0.6247849023
4    
Dihedral (-30,) Energy -9.043318721
H       -0.8492270993   -0.6967716147   -0.5131247761
O       -0.6718130913    0.2133921461   -0.2425182382
O        0.6683976107    0.2470134994    0.2189093595
H        0.8590761079   -0.6279660156    0.5810616191
4    
Dihedral (-15,) Energy -9.041773361
H       -0.8568314595   -0.7052130243   -0.4713133304
O       -0.6532840445    0.2213398933   -0.2955390392
O        0.6497125105    0.2600675216    0.2708531477
H        0.8668365216   -0.6405263753    0.5403271861
4    
Dihedral (0,) Energy -9.041208769
H       -0.8724345968   -0.7068412685   -0.4334505568
O       -0.6290820330    0.2223257630   -0.3471740587
O        0.6254593069    0.2659711215    0.3221348614
H        0.8824908511   -0.6457876007    0.5028177183
4    
Dihedral (15,) Energy -9.041773358
H       -0.8950759352   -0.7018263514   -0.3996649744
O       -0.5997140769    0.2166031175   -0.3957350091
O        0.5961424922    0.2648111251    0.3710487675
H        0.9050810481   -0.6439198759    0.4686791802
4    
Dihedral (30,) Energy -9.043318722
H       -0.9253032287   -0.6900461136   -0.3709070660
O       -0.5662827305    0.2040613660   -0.4398066979
O        0.5628672140    0.2563491163    0.4161975712
H        0.9351522734   -0.6346963534    0.4388441569
4    
Dihedral (45,) Energy -9.045455216
H       -0.9631748432   -0.6712071834   -0.3480427048
O       -0.5308548551    0.1843988704   -0.4783765160
O        0.5277053463    0.2402121264    0.4566032586
H        0.9727578802   -0.6177357980    0.4141439265
4    
Dihedral (60,) Energy -9.047704260
H       -0.8666914151    0.1476515013   -0.6480152083
O       -0.6875520522   -0.6308895109   -0.1000583516
O        0.6967563714   -0.6070852696    0.1635458208
H        0.8639206239    0.2259912943    0.6288557037
4    
Dihedral (75,) Energy -9.049681308
H       -0.8832147048    0.1122690422   -0.6934980303
O       -0.6935416591   -0.5959183774   -0.0593343884
O        0.7022579577   -0.5763782868    0.1194537523
H        0.8809319342    0.1956956371    0.6777066309
4    
Dihedral (90,) Energy -9.051207979
H       -0.9033986851    0.0702165659   -0.7367001837
O       -0.6976042013   -0.5544904683   -0.0247981159
O        0.7057322914   -0.5386447356    0.0808579217
H        0.9017041231    0.1585866532    0.7249683423
4    
Dihedral (105,) Energy -9.052305337
H       -0.9238732198    0.0225056415   -0.7754778522
O       -0.7005854388   -0.5074724125    0.0038672204
O        0.7080381245   -0.4947664690    0.0475312402
H        0.9228540621    0.1154012551    0.7684073561
4    
Dihedral (120,) Energy -9.053101803
H       -0.9423524728   -0.0299387478   -0.8083084088
O       -0.7029118611   -0.4556806619    0.0269859430
O        0.7096142470   -0.4455824198    0.0192342765
H        0.9420836149    0.0668698446    0.8064161537
4    
Dihedral (135,) Energy -9.053721659
H       -0.9574715095   -0.0862177794   -0.8341381125
O       -0.7046176052   -0.3999459091    0.0446400206
O        0.7105071662   -0.3919267103   -0.0040295629
H        0.9580154765    0.0137584140    0.8378556192
4    
Dihedral (150,) Energy -9.054213733
H       -0.9684891300   -0.1453939052   -0.8522112955
O       -0.7057386002   -0.3411710240    0.0566478220
O        0.7107660508   -0.3346782634   -0.0219872729
H        0.9698952073   -0.0430887921    0.8618787108
4    
Dihedral (165,) Energy -9.054548877
H       -0.9750308124   -0.2064308370   -0.8619941038
O       -0.7064463305   -0.2803779654    0.0627255013
O        0.7105772972   -0.2748219885   -0.0342520914
H        0.9773333736   -0.1027011939    0.8778486583
4    
Dihedral (180,) Energy -9.054669732
H       -0.9769160256   -0.2681879044   -0.8631816947
O       -0.7069511263   -0.2187029633    0.0626591167
O        0.7101678902   -0.2134630291   -0.0404951345
H        0.9801327895   -0.1639780880    0.8853456769
