12   
Dihedral (-60, -150) Energy -194.293553522
C        1.6205598139   -0.4587649223    0.3342356895
C        0.7404156925    0.7067086173   -0.1418146545
H        1.4707077589   -0.6538032967    1.4039870678
H        2.6830936936   -0.2404616272    0.1775805451
H        1.3680764628   -1.3710424880   -0.2137554903
H        0.9832615527    1.6204201591    0.4197712848
C       -0.7514241506    0.4289166968    0.0203986103
H        0.9389995219    0.9160419512   -1.2008263915
H       -1.3340304385    1.2982374789   -0.3174917842
H       -0.9952974696    0.2467904715    1.0778665000
O       -1.0823673428   -0.7549307323   -0.7715321420
H       -2.0042013723   -0.7093143097   -1.0897213341
12   
Dihedral (-60, -120) Energy -194.292800770
C        1.5891124059   -0.4733121621    0.3662680889
C        0.7243592452    0.6838127483   -0.1543023638
H        1.4590334680   -0.6052255658    1.4481184652
H        2.6526922867   -0.2912074068    0.1746760153
H        1.3018485978   -1.4081896058   -0.1241195545
H        0.9936560299    1.6191736934    0.3585808228
C       -0.7711073523    0.4389148953    0.0472103352
H        0.9136609215    0.8406302019   -1.2249787529
H       -1.3517638765    1.3074001696   -0.2928720031
H       -0.9891860035    0.2842776196    1.1117448005
O       -1.1806843089   -0.7741337922   -0.6650714744
H       -1.8628462414   -0.5699102155   -1.3316016516
12   
Dihedral (-60, -90) Energy -194.294155768
C        1.5590150635   -0.4930730642    0.3687022684
C        0.7070988842    0.6672308125   -0.1646042099
H        1.4579891892   -0.5853284788    1.4575632765
H        2.6206139277   -0.3462974808    0.1400261685
H        1.2327387033   -1.4367809417   -0.0789962905
H        1.0018072269    1.6101012596    0.3196193246
C       -0.7920249358    0.4552497163    0.0665199958
H        0.8874394804    0.8008642602   -1.2416280607
H       -1.3661771394    1.3350899651   -0.2572237079
H       -0.9897362740    0.2987501938    1.1318739288
O       -1.2809530342   -0.7554515862   -0.5929047954
H       -1.5786544010   -0.5473536776   -1.5002257554
12   
Dihedral (-60, -60) Energy -194.295094423
C        1.5317566229   -0.5013749598    0.3422103330
C        0.6799884296    0.6713136947   -0.1651253821
H        1.4563686559   -0.5952148968    1.4326810974
H        2.5888122608   -0.3668858613    0.0872392923
H        1.1848572595   -1.4427441301   -0.0955369596
H        1.0016872181    1.6092904015    0.3100371626
C       -0.8175776118    0.4839997072    0.0994377466
H        0.8369158250    0.8092477122   -1.2467529910
H       -1.3768929837    1.3778251276   -0.2156863379
H       -1.0050072973    0.3267980467    1.1651251907
O       -1.3610625880   -0.7090400159   -0.5430597020
H       -1.2350452258   -0.6456214178   -1.5121786908
12   
Dihedral (-60, -30) Energy -194.293561286
C        1.5005359790   -0.5122197036    0.3047794776
C        0.6587497232    0.6864397458   -0.1612181482
H        1.4333318576   -0.6364290105    1.3923278024
H        2.5564260002   -0.3824656288    0.0433937107
H        1.1470460453   -1.4426347941   -0.1528433025
H        1.0035961984    1.6043060529    0.3345592365
C       -0.8398979626    0.5217359851    0.1107656960
H        0.8062226296    0.8523486311   -1.2404435205
H       -1.3775007863    1.4285354431   -0.2024532677
H       -1.0286225728    0.3682941080    1.1777025192
O       -1.4211009327   -0.6412051385   -0.5550190790
H       -0.9370519901   -0.8268807760   -1.3848340145
12   
Dihedral (-60, 150) Energy -194.293927437
C        1.5756281569   -0.4808586297    0.3105752747
C        0.7586982830    0.7424195034   -0.1282625936
H        1.3640126727   -0.7452328397    1.3553543818
H        2.6512197556   -0.2891046492    0.2258230727
H        1.3250970956   -1.3420693827   -0.3149901971
H        0.9960140184    1.6133158408    0.4992297170
C       -0.7491503231    0.5099545350   -0.0707498723
H        1.0256145794    1.0122687499   -1.1586820635
H       -1.2910726860    1.4121703194   -0.3877497112
H       -1.0508410967    0.2773557463    0.9622222791
O       -1.0743436477   -0.6021351537   -0.9618431220
H       -1.8570504334   -1.0872594141   -0.6377483538
12   
Dihedral (-60, 180) Energy -194.294591049
C        1.6059213462   -0.4679819159    0.3245544911
C        0.7537750988    0.7245216977   -0.1344607041
H        1.4214318337   -0.7013994487    1.3813559214
H        2.6749008349   -0.2554397549    0.2094683034
H        1.3612257540   -1.3555452441   -0.2652536951
H        0.9878214392    1.6164924126    0.4636977910
C       -0.7458092017    0.4638617585   -0.0321452505
H        0.9894995602    0.9681780879   -1.1785520159
H       -1.3089421873    1.3499436672   -0.3616273860
H       -1.0227675887    0.2529396507    1.0131171356
O       -1.0506519078   -0.6833093786   -0.8813014460
H       -2.0056898370   -0.8884594417   -0.8472622781
12   
Dihedral (-45, -150) Energy -194.292459346
C        1.6019858136   -0.4806987294    0.2840078497
C        0.7439664481    0.7340942661   -0.1012769718
H        1.4285905389   -0.7767873677    1.3265311936
H        2.6683960045   -0.2540779341    0.1710394020
H        1.3525478734   -1.3338223169   -0.3510324494
H        0.9847227696    1.5983218245    0.5334780010
C       -0.7597770550    0.4698677841    0.0018434943
H        0.9812074240    1.0220865876   -1.1347101271
H       -1.3196842437    1.2732814790   -0.4974438556
H       -1.0678387979    0.4499170334    1.0583365389
O       -1.0523514874   -0.8291575528   -0.6013307076
H       -1.9520432139   -0.8369172531   -0.9803147886
12   
Dihedral (-45, -120) Energy -194.291911114
C        1.5686006954   -0.4960954872    0.3128340364
C        0.7309321298    0.7186865926   -0.1123040125
H        1.4143415786   -0.7343868299    1.3730267153
H        2.6372821042   -0.3054663129    0.1621149479
H        1.2796091592   -1.3737538150   -0.2704167589
H        0.9999418039    1.6042589284    0.4810797517
C       -0.7777357148    0.4884198015    0.0295789458
H        0.9595238961    0.9603446558   -1.1605589207
H       -1.3394988986    1.2920281497   -0.4651360759
H       -1.0546507393    0.4913308013    1.0918555307
O       -1.1539499607   -0.8246540437   -0.4988248049
H       -1.7943916845   -0.7351490123   -1.2291929456
12   
Dihedral (-45, -90) Energy -194.293357554
C        1.5470609854   -0.5008373964    0.3004505148
C        0.7104091905    0.7144111591   -0.1238495138
H        1.4173930990   -0.7175931350    1.3683486057
H        2.6134132808   -0.3264153607    0.1180155779
H        1.2339975724   -1.3888399233   -0.2547972160
H        1.0048705421    1.6081466583    0.4447985323
C       -0.7984828469    0.5034995239    0.0650926124
H        0.9161816918    0.9402718244   -1.1815972028
H       -1.3702111307    1.3168647915   -0.4030339667
H       -1.0381561160    0.4982926323    1.1335839510
O       -1.2504839570   -0.8022414766   -0.4131157273
H       -1.5094986576   -0.7487885220   -1.3543334698
12   
Dihedral (-45, -60) Energy -194.294152888
C        1.5134198845   -0.5126551514    0.2718691498
C        0.6844691017    0.7173437068   -0.1268567557
H        1.4040556983   -0.7333703328    1.3407643017
H        2.5775358055   -0.3522511296    0.0659890461
H        1.1822781693   -1.3985491364   -0.2775775184
H        1.0094112807    1.6031685576    0.4364283184
C       -0.8251992144    0.5349275428    0.0905740402
H        0.8702449337    0.9476635893   -1.1882154386
H       -1.3815149334    1.3641087922   -0.3709851114
H       -1.0570321853    0.5287660487    1.1593986543
O       -1.3306954347   -0.7510213292   -0.3788020480
H       -1.1633526563   -0.8434808334   -1.3395552665
12   
Dihedral (-45, -30) Energy -194.292252818
C        1.4835548022   -0.5288870532    0.2366042454
C        0.6661277630    0.7216555643   -0.1277571679
H        1.3517356678   -0.7937927042    1.2924471273
H        2.5513923421   -0.3610852219    0.0591402704
H        1.1791558838   -1.3984779587   -0.3555157732
H        1.0106250416    1.5846971385    0.4574245257
C       -0.8467271794    0.5647986703    0.0901898092
H        0.8521658486    0.9761533059   -1.1828906188
H       -1.3794904114    1.4069793532   -0.3739200501
H       -1.0812158646    0.5674582696    1.1594796446
O       -1.3920564680   -0.6961114260   -0.4033061257
H       -0.8735881030   -1.0132175221   -1.1695994185
12   
Dihedral (-45, 150) Energy -194.292284502
C        1.5847005986   -0.4783635137    0.2229121295
C        0.7587953399    0.7765231333   -0.0938702091
H        1.3632479094   -0.8604954762    1.2283539781
H        2.6575573732   -0.2588357726    0.1776739674
H        1.3547972299   -1.2699002507   -0.4935547782
H        0.9875924393    1.5880664115    0.6108400738
C       -0.7541286715    0.5371361683   -0.0681445481
H        1.0412243857    1.1404490295   -1.0914059233
H       -1.2860714484    1.3803616487   -0.5300912896
H       -1.0925357583    0.4562307827    0.9767418645
O       -1.0550504718   -0.7011440759   -0.7822623619
H       -1.8525275734   -1.1247084323   -0.4119919128
12   
Dihedral (-45, 180) Energy -194.293208210
C        1.6131877170   -0.4684692911    0.2262337329
C        0.7525609082    0.7610934415   -0.1012909505
H        1.4300758621   -0.8231252067    1.2487801415
H        2.6792480386   -0.2288617082    0.1392780403
H        1.3775332953   -1.2867628648   -0.4575649806
H        0.9864041844    1.5943720540    0.5755138781
C       -0.7515115876    0.4925037934   -0.0214376699
H        0.9955675103    1.1015718676   -1.1171034839
H       -1.3111175704    1.3163571855   -0.4884284078
H       -1.0621057429    0.4274465452    1.0338964612
O       -1.0262118456   -0.7729158417   -0.6932838954
H       -1.9821560503   -0.9730938816   -0.6591624925
12   
Dihedral (-30, -150) Energy -194.289773785
C        1.5953593041   -0.4973787486    0.2336083341
C        0.7484335689    0.7512875971   -0.0598325388
H        1.3940056457   -0.8946417750    1.2357915999
H        2.6630032420   -0.2562633036    0.1727454121
H        1.3675072950   -1.2872628021   -0.4847090887
H        0.9813434681    1.5554581242    0.6508901843
C       -0.7687575337    0.4988658426   -0.0235393174
H        1.0255512909    1.1248822263   -1.0558004951
H       -1.2880618470    1.2126119326   -0.6779545231
H       -1.1482035721    0.6467785633    0.9985898478
O       -1.0467641024   -0.8800854769   -0.4219783841
H       -1.9197616976   -0.9415232745   -0.8547353300
12   
Dihedral (-30, -120) Energy -194.289390672
C        1.5831391975   -0.4985537248    0.2353404544
C        0.7358977532    0.7452209363   -0.0734418449
H        1.4050043917   -0.8629360360    1.2543327211
H        2.6506223139   -0.2691539290    0.1385035331
H        1.3302905775   -1.3105698113   -0.4496493850
H        0.9950220703    1.5698019296    0.6046768793
C       -0.7822447039    0.5005870197    0.0241318522
H        0.9852963565    1.0887468239   -1.0883580670
H       -1.3310528332    1.2106383373   -0.6081680766
H       -1.1116714303    0.6558552935    1.0592877730
O       -1.1282705983   -0.8830015754   -0.3082298424
H       -1.7321957518   -0.9171588308   -1.0736411567
12   
Dihedral (-30, -90) Energy -194.290961318
C        1.5550548347   -0.5071818447    0.2247895321
C        0.7168065224    0.7417875929   -0.0858115331
H        1.3888507599   -0.8557465764    1.2510080277
H        2.6234618424   -0.2937285060    0.1060009418
H        1.2848870643   -1.3294597742   -0.4423688020
H        1.0045916144    1.5756857136    0.5689429966
C       -0.8031056703    0.5181211145    0.0580442212
H        0.9454686736    1.0667312190   -1.1126057625
H       -1.3662071605    1.2398441793   -0.5491034087
H       -1.0949304891    0.6656424573    1.1027794975
O       -1.2211310491   -0.8532021134   -0.2277100409
H       -1.4347923102   -0.9556556473   -1.1763821645
12   
Dihedral (-30, -60) Energy -194.291606491
C        1.5019048091   -0.5275508662    0.2031091982
C        0.6923602484    0.7450210464   -0.0927396486
H        1.3321881188   -0.8800894716    1.2268738866
H        2.5742128748   -0.3385562014    0.0800980681
H        1.2211109090   -1.3437528723   -0.4691181738
H        1.0131861693    1.5645392100    0.5642417331
C       -0.8337801541    0.5677127198    0.0623682066
H        0.9199867686    1.0725891665   -1.1188358187
H       -1.3699468699    1.3106682534   -0.5456592314
H       -1.1251416438    0.7191124857    1.1053117179
O       -1.3160268040   -0.7796103749   -0.2222131958
H       -1.0979011589   -1.0274397950   -1.1442166926
12   
Dihedral (-30, -30) Energy -194.289444538
C        1.4727470742   -0.5413401322    0.1642435549
C        0.6726936632    0.7471703473   -0.0969614456
H        1.2594109858   -0.9538050759    1.1567053125
H        2.5479246046   -0.3411931884    0.1019655359
H        1.2485396527   -1.3222802394   -0.5717083350
H        1.0118513099    1.5426054194    0.5788858775
C       -0.8572959073    0.5967049311    0.0622817916
H        0.9007771150    1.0955061618   -1.1151374039
H       -1.3716165147    1.3510240626   -0.5494591042
H       -1.1463695582    0.7619000300    1.1048408252
O       -1.3829138599   -0.7295643766   -0.2457175765
H       -0.8324699175   -1.1693125136   -0.9227559764
12   
Dihedral (-30, 150) Energy -194.289389093
C        1.5889484958   -0.4889202291    0.1721939074
C        0.7605451857    0.7850147660   -0.0532956922
H        1.3397035584   -0.9693318763    1.1265273795
H        2.6588745120   -0.2501972730    0.1847506810
H        1.3954235330   -1.2137844513   -0.6206941614
H        0.9659783764    1.5284794983    0.7286584849
C       -0.7603125384    0.5448454233   -0.1050182442
H        1.0833146666    1.2383635115   -1.0007869694
H       -1.2498082019    1.3041648827   -0.7298142635
H       -1.1760333636    0.6304917667    0.9107332701
O       -1.0356381698   -0.7916007438   -0.6274471554
H       -1.8653920975   -1.1392275263   -0.2491648166
12   
Dihedral (-30, 180) Energy -194.290424947
C        1.6092490821   -0.4817418548    0.1780495940
C        0.7553810011    0.7740269066   -0.0597708076
H        1.4006227587   -0.9324576216    1.1558197171
H        2.6752283624   -0.2281499928    0.1425333795
H        1.3977530680   -1.2353669821   -0.5828118846
H        0.9768948483    1.5437529461    0.6912360776
C       -0.7602088155    0.5125077437   -0.0505654402
H        1.0381541996    1.1992500873   -1.0328211563
H       -1.2795756666    1.2496392358   -0.6797339616
H       -1.1473918619    0.6165166504    0.9756668843
O       -1.0105373762   -0.8457739384   -0.5216927451
H       -1.9707376773   -1.0279404067   -0.5217841367
12   
Dihedral (-15, -150) Energy -194.286990367
C        1.6047668630   -0.4935212678    0.1465665429
C        0.7488291546    0.7723578192   -0.0266534468
H        1.3912528776   -0.9975800928    1.0951356941
H        2.6694458832   -0.2321860913    0.1286616276
H        1.4029329136   -1.2092043882   -0.6531510353
H        0.9843970286    1.4973092323    0.7632160374
C       -0.7770192765    0.5163063574   -0.0232191807
H        1.0329234556    1.2486079219   -0.9754002554
H       -1.2629588319    1.1099763953   -0.8096688067
H       -1.2086790774    0.8276089954    0.9387796631
O       -1.0494014578   -0.9086440987   -0.2093884256
H       -1.9024836278   -1.0348416541   -0.6670648579
12   
Dihedral (-15, -120) Energy -194.286690149
C        1.5825032341   -0.4983424329    0.1486331843
C        0.7363264118    0.7706665418   -0.0410665308
H        1.3853408825   -0.9722448394    1.1161369947
H        2.6496907429   -0.2526559108    0.0966906435
H        1.3539208338   -1.2367686932   -0.6235314096
H        1.0006672118    1.5183329565    0.7182428434
C       -0.7925431498    0.5261545299    0.0206894249
H        0.9981804466    1.2152685501   -1.0122610472
H       -1.3104495281    1.1205256731   -0.7428966338
H       -1.1761375093    0.8424348073    0.9980291156
O       -1.1301521177   -0.8937989549   -0.1035337422
H       -1.6973619381   -1.0498425194   -0.8817525594
12   
Dihedral (-15, -90) Energy -194.288331733
C        1.5424813264   -0.5206915277    0.1630175473
C        0.7216094159    0.7619309809   -0.0446582395
H        1.3337336629   -0.9767996343    1.1362598888
H        2.6146027378   -0.2989812431    0.1082637741
H        1.3072806538   -1.2687506442   -0.5995670422
H        1.0063446652    1.5142836967    0.7027146027
C       -0.8134532047    0.5471076974    0.0330426939
H        0.9871830928    1.1894726908   -1.0227551437
H       -1.3333831775    1.1565023228   -0.7182467120
H       -1.1775091685    0.8585665626    1.0163352261
O       -1.2242976392   -0.8531304573   -0.0578572913
H       -1.3772412650   -1.1053697723   -0.9899343390
12   
Dihedral (-15, -60) Energy -194.288905229
C        1.4986217633   -0.5362371151    0.1345697125
C        0.6978422400    0.7634864937   -0.0534094926
H        1.2753347310   -1.0097116051    1.0959409896
H        2.5737493668   -0.3286365991    0.0934097477
H        1.2745132060   -1.2680448106   -0.6494030178
H        1.0123846948    1.5019577661    0.6953963448
C       -0.8423625106    0.5845911821    0.0440104313
H        0.9572131144    1.1939141273   -1.0313816736
H       -1.3483584940    1.2099271401   -0.7054311978
H       -1.1973305622    0.8989807964    1.0283333327
O       -1.3083708993   -0.7954062778   -0.0471751567
H       -1.0405772033   -1.1862685940   -0.9034168813
12   
Dihedral (-15, -30) Energy -194.286801119
C        1.4649745071   -0.5509654120    0.0946899142
C        0.6780806007    0.7636431729   -0.0566532780
H        1.2144492579   -1.0684319372    1.0267243814
H        2.5412169779   -0.3476242510    0.0963082566
H        1.2781343550   -1.2433699317   -0.7364483838
H        1.0043901983    1.4711061914    0.7158446653
C       -0.8679273167    0.6153621214    0.0318073266
H        0.9476711256    1.2181634465   -1.0196856602
H       -1.3455516622    1.2566431157   -0.7219518853
H       -1.2251113280    0.9402577105    1.0130079715
O       -1.3798766454   -0.7455363201   -0.0979791901
H       -0.7933047756   -1.2824655293   -0.6645716968
12   
Dihedral (-15, 150) Energy -194.286720510
C        1.5971760390   -0.4936475768    0.1202788567
C        0.7585836469    0.7879053308   -0.0130861942
H        1.3215784824   -1.0647174619    1.0134072957
H        2.6615409659   -0.2398779639    0.1915471004
H        1.4468014549   -1.1475451141   -0.7413893609
H        0.9406667397    1.4472904633    0.8458443125
C       -0.7653668598    0.5444289308   -0.1404053171
H        1.1090763157    1.3364228826   -0.8978008228
H       -1.1943772719    1.1878075069   -0.9202478651
H       -1.2592885389    0.8021408404    0.8080359040
O       -1.0302196020   -0.8579296416   -0.4584470422
H       -1.8922699172   -1.1305023155   -0.0906446765
12   
Dihedral (-15, 180) Energy -194.287684182
C        1.6098207850   -0.4897493060    0.1277144619
C        0.7555590716    0.7807257606   -0.0202203746
H        1.3701692988   -1.0316940565    1.0485594165
H        2.6734610073   -0.2245575479    0.1522451744
H        1.4355193816   -1.1732221400   -0.7059667670
H        0.9627200043    1.4715560049    0.8072211127
C       -0.7680363177    0.5239671268   -0.0816083966
H        1.0693050555    1.2979890921   -0.9370710640
H       -1.2290676080    1.1432172281   -0.8644667860
H       -1.2329310818    0.8023697465    0.8765964480
O       -1.0120583290   -0.8926090663   -0.3391402717
H       -1.9738543414   -1.0621071603   -0.3792278184
12   
Dihedral (0, -150) Energy -194.285723505
C        1.5977500156   -0.4985828739    0.0837830981
C        0.7456715373    0.7797523465    0.0099214787
H        1.3441698685   -1.0944702102    0.9648207843
H        2.6612399813   -0.2360104565    0.1338845354
H        1.4370681166   -1.1332579941   -0.7919318209
H        0.9701013864    1.4097055984    0.8805012515
C       -0.7844445659    0.5301282119   -0.0495580823
H        1.0503958814    1.3591425386   -0.8719659655
H       -1.2016724701    0.9757224584   -0.9634800650
H       -1.2823830794    1.0081810075    0.8050814993
O       -1.0677672930   -0.9047795782   -0.0206561477
H       -1.8906178478   -1.0970686785   -0.5094508591
12   
Dihedral (0, -120) Energy -194.285343049
C        1.5695617725   -0.5078889375    0.0894151941
C        0.7352206080    0.7801552989   -0.0007272685
H        1.3265011572   -1.0759117916    0.9915559607
H        2.6382175112   -0.2632294301    0.1068108775
H        1.3809974902   -1.1649121653   -0.7650827523
H        0.9919207420    1.4320780591    0.8445334143
C       -0.8016280185    0.5461003647   -0.0064891989
H        1.0238921368    1.3301130992   -0.9073137705
H       -1.2534807580    0.9930207345   -0.9018212098
H       -1.2556874913    1.0310425503    0.8645860481
O       -1.1486788490   -0.8746590665    0.0763213761
H       -1.6631678420   -1.1505172755   -0.7049242360
12   
Dihedral (0, -90) Energy -194.286950987
C        1.5295095485   -0.5218790604    0.0833360428
C        0.7194714404    0.7815542368   -0.0113697120
H        1.2822268683   -1.0762773276    0.9927136137
H        2.6031178327   -0.3008927033    0.0888260320
H        1.3287583773   -1.1841100917   -0.7663108148
H        1.0030237122    1.4382842537    0.8214465755
C       -0.8236260055    0.5738430454    0.0152500345
H        1.0037086122    1.3143019572   -0.9295498541
H       -1.2932264749    1.0401923568   -0.8614903028
H       -1.2488420031    1.0481104636    0.9033493641
O       -1.2372005439   -0.8244283019    0.1256882737
H       -1.3396219431   -1.2197004709   -0.7620593754
12   
Dihedral (0, -60) Energy -194.287629885
C        1.4852852343   -0.5403348875    0.0585268311
C        0.6973072872    0.7791717814   -0.0176715367
H        1.2142347273   -1.1130156426    0.9500862540
H        2.5614205342   -0.3375719884    0.0894604925
H        1.3029598159   -1.1779890407   -0.8161118834
H        1.0030125862    1.4194918834    0.8197013564
C       -0.8516166364    0.6050589944    0.0185985606
H        0.9837194411    1.3151604874   -0.9324578778
H       -1.3080557086    1.0884267600   -0.8574353503
H       -1.2703199430    1.0785415951    0.9087718006
O       -1.3159405346   -0.7751260678    0.1187375614
H       -0.9995632512   -1.2915137625   -0.6492491408
12   
Dihedral (0, -30) Energy -194.285694726
C        1.4566873613   -0.5556000953    0.0236857619
C        0.6794150724    0.7728477483   -0.0129584623
H        1.1852777304   -1.1563687152    0.8982358736
H        2.5331701450   -0.3604274000    0.0706154033
H        1.2869744183   -1.1610564488   -0.8773890371
H        0.9856015085    1.3744426949    0.8521315316
C       -0.8748383475    0.6284631335   -0.0040519181
H        0.9843279357    1.3380633238   -0.9026499707
H       -1.2949455912    1.1334772812   -0.8855527078
H       -1.3010827450    1.1076254689    0.8806649494
O       -1.3867535517   -0.7381211755    0.0375848624
H       -0.7680174494   -1.3511043225   -0.4032019447
12   
Dihedral (0, 150) Energy -194.285723213
C        1.6048730262   -0.4943118272    0.0656144901
C        0.7506647583    0.7840492729    0.0241647357
H        1.2975159277   -1.1500463895    0.8847346223
H        2.6608327049   -0.2334409678    0.2047508833
H        1.5069420217   -1.0675291825   -0.8604201516
H        0.9053541678    1.3450382832    0.9556266117
C       -0.7680974559    0.5365595153   -0.1742762821
H        1.1145898014    1.4308091553   -0.7847863782
H       -1.1187518339    1.0328466407   -1.0894724107
H       -1.3308942091    0.9646314592    0.6670846876
O       -1.0414818555   -0.8967253427   -0.2787308804
H       -1.9334073063   -1.0968679928    0.0638466423
12   
Dihedral (0, 180) Energy -194.286532022
C        1.6099694379   -0.4942095336    0.0750244018
C        0.7505886398    0.7806994602    0.0168386305
H        1.3317941021   -1.1220490673    0.9257112573
H        2.6687035352   -0.2252392602    0.1707887279
H        1.4843972406   -1.0982072358   -0.8275957799
H        0.9378931111    1.3790722996    0.9179014616
C       -0.7728730486    0.5261748767   -0.1126955460
H        1.0833338690    1.3937936709   -0.8310000930
H       -1.1596915550    0.9959515611   -1.0288746077
H       -1.3062400740    0.9759878826    0.7376714136
O       -1.0274361640   -0.9117988977   -0.1489824304
H       -1.9874759198   -1.0765930213   -0.2306571469
12   
Dihedral (15, -150) Energy -194.286720492
C        1.5995389035   -0.4966888479    0.0290829903
C        0.7473518579    0.7826920153    0.0487998722
H        1.3095886278   -1.1689114502    0.8394424036
H        2.6603361353   -0.2427318192    0.1412190011
H        1.4776203894   -1.0479208840   -0.9095529563
H        0.9454858121    1.3120159093    0.9906012790
C       -0.7762102589    0.5384923842   -0.0828345369
H        1.0674743472    1.4598203216   -0.7541486862
H       -1.1071028161    0.8167913694   -1.0942506910
H       -1.3297267506    1.1658254594    0.6286519321
O       -1.0871925820   -0.8698716998    0.1574249599
H       -1.8759678299   -1.1333990538   -0.3535563635
12   
Dihedral (15, -120) Energy -194.286159756
C        1.5639877390   -0.5113782695    0.0307699815
C        0.7365858842    0.7836413842    0.0412673159
H        1.2813005453   -1.1587753335    0.8637558693
H        2.6324595866   -0.2785790643    0.1087347894
H        1.4100798110   -1.0819339115   -0.8926809294
H        0.9688573972    1.3329343440    0.9634843536
C       -0.7970673189    0.5580105081   -0.0398230345
H        1.0473591700    1.4343979194   -0.7874362423
H       -1.1660963819    0.8445205834   -1.0341617981
H       -1.3126180100    1.1870177658    0.6938729033
O       -1.1670878968   -0.8307380529    0.2411495633
H       -1.6275963322   -1.2247210769   -0.5226375192
12   
Dihedral (15, -90) Energy -194.287682905
C        1.5220902278   -0.5242957982    0.0184416172
C        0.7222340780    0.7885843757    0.0313732349
H        1.2283598333   -1.1636748736    0.8544453820
H        2.5956786557   -0.3176587313    0.0926293386
H        1.3595361400   -1.0918797182   -0.9070166317
H        0.9824391665    1.3384774754    0.9455631853
C       -0.8195355388    0.5899650881   -0.0179883771
H        1.0320371373    1.4254029943   -0.8082304960
H       -1.2136017246    0.8976546170   -0.9969828914
H       -1.3066059287    1.2087592781    0.7393079611
O       -1.2506168350   -0.7753064973    0.2788264842
H       -1.2941512613   -1.3008101012   -0.5432801500
12   
Dihedral (15, -60) Energy -194.288471318
C        1.4878197311   -0.5328338207   -0.0131587085
C        0.7073613477    0.7924469594    0.0240623971
H        1.1931215121   -1.1803927804    0.8176936855
H        2.5639090669   -0.3437818244    0.0627876097
H        1.3242132814   -1.0830419711   -0.9502994356
H        0.9886659067    1.3230066324    0.9432552721
C       -0.8398447405    0.6230779905   -0.0133521013
H        1.0187859849    1.4339344198   -0.8102964737
H       -1.2276147856    0.9480646264   -0.9908141470
H       -1.3180008096    1.2386221184    0.7504577943
O       -1.3151043919   -0.7277978158    0.2666167261
H       -0.9505119623   -1.3499221722   -0.3935447450
12   
Dihedral (15, -30) Energy -194.286557060
C        1.4626207385   -0.5478725424   -0.0432804463
C        0.6848316569    0.7777579284    0.0379335393
H        1.2001535104   -1.2158795749    0.7848995764
H        2.5392240997   -0.3580725722    0.0183627099
H        1.2858826569   -1.0771090590   -0.9897967527
H        0.9572188812    1.2673147781    0.9820390901
C       -0.8649903361    0.6364975391   -0.0394673079
H        1.0170038792    1.4477914168   -0.7644149211
H       -1.2114390773    0.9940515764   -1.0204879823
H       -1.3494890685    1.2508050615    0.7229352725
O       -1.3902783141   -0.7091557811    0.1642976753
H       -0.7474079946   -1.3775299643   -0.1397864082
12   
Dihedral (15, 150) Energy -194.286990460
C        1.6216058863   -0.4877368569    0.0128198977
C        0.7467143846    0.7762057615    0.0590048925
H        1.2843417628   -1.2186641197    0.7506794504
H        2.6664572655   -0.2289191208    0.2212367459
H        1.5776225192   -0.9724872123   -0.9683013244
H        0.8651002742    1.2369279519    1.0496224960
C       -0.7560983446    0.5222121013   -0.2075170400
H        1.1117601886    1.5133261691   -0.6678739511
H       -1.0187160492    0.8500523167   -1.2235229477
H       -1.3690449605    1.1035862805    0.4948490397
O       -1.0544443915   -0.9051725378   -0.0937689013
H       -1.9726525459   -1.0375893613    0.2103212874
12   
Dihedral (15, 180) Energy -194.287684315
C        1.6186285353   -0.4885991950    0.0229881005
C        0.7494083901    0.7799498341    0.0543624763
H        1.3085995109   -1.1901179273    0.8003417884
H        2.6709310629   -0.2250310425    0.1825094822
H        1.5372740431   -1.0094036500   -0.9368344225
H        0.9059464107    1.2769918449    1.0213497288
C       -0.7628383288    0.5246672170   -0.1430702589
H        1.0895736446    1.4879007712   -0.7123895037
H       -1.0629685345    0.8242788471   -1.1589206271
H       -1.3483311918    1.1279120930    0.5655749104
O       -1.0436646625   -0.8966307936    0.0402004140
H       -1.9985058191   -1.0652080652   -0.0832766744
12   
Dihedral (30, -150) Energy -194.289389077
C        1.5997629282   -0.4908878071   -0.0233350355
C        0.7425874914    0.7790327234    0.0888121378
H        1.2791701816   -1.2322577235    0.7109285701
H        2.6564399910   -0.2533425289    0.1466431754
H        1.5131787728   -0.9504964260   -1.0157753176
H        0.9030913516    1.2118077158    1.0860039823
C       -0.7652976989    0.5397177646   -0.1169203020
H        1.0728745376    1.5386372124   -0.6325077147
H       -1.0073530349    0.6474074230   -1.1854391128
H       -1.3531557858    1.2862434605    0.4341326043
O       -1.1202106896   -0.8071695362    0.3244261103
H       -1.8751393684   -1.1456877569   -0.1931861242
12   
Dihedral (30, -120) Energy -194.288714471