12   
Dihedral (-60, -150) Energy -193.681860700
C        1.5751673636   -0.4781677073    0.3567628541
C        0.7351251204    0.6910002923   -0.1473956083
H        1.3776124434   -0.6686774575    1.4165202126
H        2.6435281673   -0.2730453614    0.2446742348
H        1.3369649007   -1.3856362373   -0.2010228619
H        0.9817230864    1.6036475636    0.4094035418
C       -0.7536664811    0.4322002806   -0.0117653394
H        0.9537339660    0.8847488483   -1.2027906539
H       -1.3166367782    1.3054771511   -0.3685874898
H       -1.0171587667    0.2746709856    1.0448028055
O       -1.0760280168   -0.7317586332   -0.7818925197
H       -1.9894452183   -0.6388233549   -1.0949199932
12   
Dihedral (-60, -120) Energy -193.680947940
C        1.5721062349   -0.4744590050    0.3631930609
C        0.7181283008    0.6763455139   -0.1577387538
H        1.4163344784   -0.6169153984    1.4373630980
H        2.6364280010   -0.2838507627    0.1993647295
H        1.3044280852   -1.4031338408   -0.1445088500
H        0.9816510236    1.6086436463    0.3583217690
C       -0.7672576196    0.4183814236    0.0337330516
H        0.9084118570    0.8335194710   -1.2253800859
H       -1.3512856471    1.2831611894   -0.3060386979
H       -0.9870684667    0.2717514109    1.0992332245
O       -1.1535394350   -0.7706623739   -0.6709800075
H       -1.8274284056   -0.5271313276   -1.3227595984
12   
Dihedral (-60, -90) Energy -193.682345230
C        1.5512876246   -0.4807340260    0.3570296671
C        0.6953744958    0.6667363610   -0.1667765258
H        1.4327786594   -0.5878164315    1.4399418308
H        2.6117183150   -0.3132479070    0.1489979045
H        1.2492098180   -1.4200629263   -0.1100119837
H        0.9827171110    1.6090396591    0.3175189555
C       -0.7895698366    0.4303787900    0.0708971183
H        0.8641930906    0.8018049930   -1.2425120569
H       -1.3790948388    1.3021537894   -0.2437644082
H       -0.9737469355    0.2785744908    1.1395962389
O       -1.2505055503   -0.7606356941   -0.5781849408
H       -1.5434401099   -0.5105402062   -1.4689116310
12   
Dihedral (-60, -60) Energy -193.683291960
C        1.5162412875   -0.4967749405    0.3354630007
C        0.6685907169    0.6665465603   -0.1678653039
H        1.4231519385   -0.5985402820    1.4210694854
H        2.5738791843   -0.3505209320    0.0994865731
H        1.1853158170   -1.4335591860   -0.1171094744
H        0.9855259111    1.6037821581    0.3065276874
C       -0.8168070666    0.4641506396    0.0987784345
H        0.8185080582    0.8035595611   -1.2475780564
H       -1.3847288989    1.3543884270   -0.2096525646
H       -0.9935407042    0.3127458383    1.1673971895
O       -1.3340263011   -0.7092338111   -0.5334098564
H       -1.1911853096   -0.6009029525   -1.4892645113
12   
Dihedral (-60, -30) Energy -193.681516570
C        1.4784590344   -0.5127503622    0.3006754400
C        0.6478006222    0.6796732069   -0.1658019596
H        1.3813457646   -0.6475294210    1.3820025882
H        2.5380149280   -0.3729837197    0.0701835369
H        1.1441199687   -1.4364994329   -0.1771247937
H        0.9905233449    1.5960252198    0.3292164045
C       -0.8396680383    0.5074181464    0.1057118732
H        0.7911553046    0.8433873712   -1.2428956227
H       -1.3799012717    1.4147198180   -0.2013439390
H       -1.0183723875    0.3604001932    1.1755848449
O       -1.3963520165   -0.6363768712   -0.5489853272
H       -0.8862456478   -0.7798433043   -1.3633905198
12   
Dihedral (-60, 150) Energy -193.682188090
C        1.5262623936   -0.4992268979    0.3319618246
C        0.7518658768    0.7266640544   -0.1384479428
H        1.2633078445   -0.7537351661    1.3642653401
H        2.6047267887   -0.3219969079    0.2954158644
H        1.2936990725   -1.3575409932   -0.2998503076
H        0.9920562806    1.5986296233    0.4822205025
C       -0.7508906640    0.5159111782   -0.1065761564
H        1.0413160494    0.9778226731   -1.1650725403
H       -1.2741559963    1.4248700576   -0.4353974296
H       -1.0673402800    0.3036543926    0.9249783104
O       -1.0686842318   -0.5814778556   -0.9696531091
H       -1.8612358792   -1.0179433587   -0.6200282699
12   
Dihedral (-60, 180) Energy -193.682989290
C        1.5583453644   -0.4872956685    0.3465251753
C        0.7476805347    0.7082234009   -0.1430219195
H        1.3197598439   -0.7166947828    1.3901859181
H        2.6315235296   -0.2864564754    0.2833546872
H        1.3347031092   -1.3702340677   -0.2540630416
H        0.9856639174    1.6005132618    0.4486297491
C       -0.7478935519    0.4692955954   -0.0652318402
H        1.0043425549    0.9345941767   -1.1835603849
H       -1.2913794573    1.3605243144   -0.4114777910
H       -1.0414512088    0.2817506582    0.9791203378
O       -1.0463255954   -0.6616429863   -0.8873001454
H       -2.0040384067   -0.8169450598   -0.8393549608
12   
Dihedral (-45, -150) Energy -193.680716960
C        1.5590345702   -0.5005829172    0.3071153998
C        0.7403140982    0.7175628144   -0.1093175305
H        1.3243294167   -0.8007986790    1.3334529694
H        2.6295473032   -0.2826044022    0.2559128491
H        1.3422417974   -1.3445406784   -0.3478583312
H        0.9846541318    1.5851676572    0.5150075469
C       -0.7587540262    0.4724353951   -0.0293839381
H        0.9972748211    0.9830446201   -1.1411755365
H       -1.2989535750    1.2762923156   -0.5468657543
H       -1.0819858664    0.4799938018    1.0225099597
O       -1.0473229805   -0.8051404162   -0.6082185614
H       -1.9394627152   -0.7651751067   -0.9873679692
12   
Dihedral (-45, -120) Energy -193.679954440
C        1.5526768557   -0.4992509578    0.3097574641
C        0.7248602443    0.7074844768   -0.1192455304
H        1.3550197257   -0.7599565673    1.3546319700
H        2.6219921087   -0.2926637339    0.2103152950
H        1.3037291634   -1.3648735150   -0.3043797412
H        0.9902332365    1.5938714417    0.4699315914
C       -0.7729522753    0.4655534975    0.0191750531
H        0.9524589351    0.9423341866   -1.1662102949
H       -1.3392468347    1.2643514775   -0.4753822209
H       -1.0480092540    0.4800561121    1.0820043853
O       -1.1280108261   -0.8246344847   -0.4976184594
H       -1.7618360352   -0.6966158448   -1.2191689304
12   
Dihedral (-45, -90) Energy -193.681440670
C        1.5293834613   -0.5053111625    0.2988911211
C        0.7027739956    0.7018008913   -0.1297316778
H        1.3565979945   -0.7430685499    1.3534434278
H        2.5979162836   -0.3141299649    0.1662750108
H        1.2541382499   -1.3821034070   -0.2878085483
H        0.9939778336    1.5965617148    0.4342067394
C       -0.7953601216    0.4799959351    0.0562991119
H        0.9075683557    0.9203176963   -1.1861366501
H       -1.3731797017    1.2887218388   -0.4102978863
H       -1.0305443360    0.4859243094    1.1259469463
O       -1.2236669590   -0.8037179015   -0.4112920384
H       -1.4686811546   -0.7093387874   -1.3459726758
12   
Dihedral (-45, -60) Energy -193.682291980
C        1.4933368102   -0.5183159275    0.2717117998
C        0.6751467998    0.7036348723   -0.1329555204
H        1.3357799859   -0.7605175473    1.3272141343
H        2.5615918405   -0.3407445176    0.1201028054
H        1.2014639132   -1.3924759999   -0.3117519012
H        0.9972839978    1.5914039793    0.4242820829
C       -0.8233908936    0.5119628223    0.0830818040
H        0.8592175736    0.9254707720   -1.1933095026
H       -1.3856023505    1.3381322995   -0.3757865026
H       -1.0478665549    0.5155968875    1.1537095939
O       -1.3023369799   -0.7540969929   -0.3746738624
H       -1.1137038925   -0.8044029439   -1.3277943907
12   
Dihedral (-45, -30) Energy -193.680103100
C        1.4588581567   -0.5314454921    0.2318394044
C        0.6533540080    0.7131275269   -0.1346954460
H        1.2834514497   -0.8172065733    1.2731964327
H        2.5295280792   -0.3512294289    0.1039196958
H        1.1900827606   -1.3874881623   -0.3906921864
H        0.9986731034    1.5771106810    0.4441178725
C       -0.8478509660    0.5509131018    0.0864203254
H        0.8338117739    0.9601383018   -1.1896452749
H       -1.3838305101    1.3941825926   -0.3718929796
H       -1.0710473041    0.5617057473    1.1582845536
O       -1.3689889457   -0.6901282182   -0.3952244053
H       -0.8251198442   -0.9640187855   -1.1517976783
12   
Dihedral (-45, 150) Energy -193.680512010
C        1.5220067871   -0.5165700617    0.2819831570
C        0.7545058278    0.7433271370   -0.1030856631
H        1.2031418636   -0.8893736642    1.2611510069
H        2.5955174080   -0.3138468774    0.3338637007
H        1.3486587774   -1.3051646760   -0.4496361824
H        0.9707410390    1.5657834102    0.5889019581
C       -0.7533399827    0.5341900899   -0.1402674897
H        1.0895296823    1.0723898177   -1.0937621533
H       -1.2483096154    1.3808961838   -0.6357165310
H       -1.1315564628    0.4872726729    0.8914654930
O       -1.0398938097   -0.6914554053   -0.8211275361
H       -1.8600996115   -1.0518185572   -0.4499522967
12   
Dihedral (-45, 180) Energy -193.681596550
C        1.5483328234   -0.5066666361    0.2964340565
C        0.7510388864    0.7299438985   -0.1062210929
H        1.2653123999   -0.8494110825    1.2969482700
H        2.6198761988   -0.2875846131    0.3056841425
H        1.3640454367   -1.3227622335   -0.4019282207
H        0.9767181058    1.5749852017    0.5544955463
C       -0.7517615715    0.4977786922   -0.0890676084
H        1.0483033417    1.0305288854   -1.1174282846
H       -1.2697425129    1.3222721851   -0.5994863664
H       -1.1063388501    0.4756963831    0.9532138172
O       -1.0167321596   -0.7555278038   -0.7226020228
H       -1.9781427423   -0.8936143497   -0.7062280720
12   
Dihedral (-30, -150) Energy -193.677685560
C        1.5643998255   -0.5058509515    0.2368958048
C        0.7363293826    0.7399907984   -0.0672597497
H        1.3217914685   -0.9172607801    1.2212800644
H        2.6308774760   -0.2632405051    0.2245433741
H        1.3716039195   -1.2807263542   -0.5040830159
H        0.9716312892    1.5476085989    0.6346661967
C       -0.7723201389    0.4895126247   -0.0365766234
H        1.0180649311    1.1001907773   -1.0636469670
H       -1.2869396744    1.2009140541   -0.6951243774
H       -1.1538591600    0.6522963991    0.9822037164
O       -1.0401117904   -0.8641278024   -0.4204446150
H       -1.9105043417   -0.8836359336   -0.8486755879
12   
Dihedral (-30, -120) Energy -193.677089780
C        1.5512721699   -0.5075251489    0.2388374301
C        0.7242275388    0.7343302341   -0.0798893147
H        1.3310620350   -0.8867386323    1.2414114044
H        2.6193430134   -0.2768921394    0.1905321297
H        1.3303782658   -1.3039435875   -0.4709160289
H        0.9855605356    1.5624054658    0.5887679294
C       -0.7856047293    0.4915634227    0.0117249581
H        0.9787528361    1.0633152132   -1.0951510424
H       -1.3307743442    1.2003058440   -0.6228181357
H       -1.1158942377    0.6624823196    1.0442096223
O       -1.1212734312   -0.8656407080   -0.3090108703
H       -1.7160877442   -0.8579920769   -1.0739070086
12   
Dihedral (-30, -90) Energy -193.678750030
C        1.5208234686   -0.5162646916    0.2287069423
C        0.7050703489    0.7320091756   -0.0919431785
H        1.3133817225   -0.8768180408    1.2405436689
H        2.5911813766   -0.3037538783    0.1554006606
H        1.2773291172   -1.3237521327   -0.4616960596
H        0.9954788756    1.5674723766    0.5553369852
C       -0.8068079945    0.5119158153    0.0446731789
H        0.9404243602    1.0443112210   -1.1179198528
H       -1.3671326669    1.2335764995   -0.5633656426
H       -1.0973526748    0.6737871116    1.0876904784
O       -1.2125481566   -0.8327039626   -0.2323216098
H       -1.4088908839   -0.8941144203   -1.1813102801
12   
Dihedral (-30, -60) Energy -193.679423920
C        1.4811131278   -0.5314906728    0.2029670007
C        0.6799569405    0.7327539349   -0.0961545918
H        1.2773501078   -0.9006687117    1.2119084963
H        2.5533403113   -0.3328120505    0.1211948175
H        1.2316080502   -1.3334414788   -0.4933509952
H        1.0017031351    1.5577749612    0.5490919579
C       -0.8347242996    0.5463754143    0.0638013059
H        0.9016609516    1.0484875699   -1.1242733285
H       -1.3787083054    1.2866240986   -0.5396119535
H       -1.1167198837    0.7070075062    1.1080793499
O       -1.2912021387   -0.7796411564   -0.2095620997
H       -1.0544520096   -0.9852995508   -1.1302690254
12   
Dihedral (-30, -30) Energy -193.676858560
C        1.4487915667   -0.5458431501    0.1631492359
C        0.6598372948    0.7363245147   -0.1006465347
H        1.2096348938   -0.9681276397    1.1428460875
H        2.5224549426   -0.3426931275    0.1309891737
H        1.2480486751   -1.3151696608   -0.5869566136
H        1.0008251756    1.5344572407    0.5670356975
C       -0.8594647305    0.5830824780    0.0601281555
H        0.8850739814    1.0757392847   -1.1195058003
H       -1.3749247206    1.3403928955   -0.5466042363
H       -1.1400100636    0.7560846852    1.1038167409
O       -1.3628213243   -0.7209576780   -0.2391580658
H       -0.7865290166   -1.1176163462   -0.9112655374
12   
Dihedral (-30, 150) Energy -193.677316480
C        1.5390798211   -0.5163122196    0.2136875439
C        0.7461096087    0.7578359021   -0.0605507591
H        1.2150458961   -0.9977976566    1.1412489885
H        2.6042566681   -0.2852751518    0.3070082300
H        1.4045155941   -1.2327431466   -0.5957422341
H        0.9358967521    1.5125242829    0.7107460542
C       -0.7652353446    0.5302921480   -0.1582242137
H        1.1054962235    1.1864598539   -1.0033349376
H       -1.2300119972    1.2899266106   -0.8010479245
H       -1.2055361441    0.6361614772    0.8435234762
O       -1.0272763918   -0.7863351026   -0.6552144496
H       -1.8713722207   -1.0790620675   -0.2783314998
12   
Dihedral (-30, 180) Energy -193.678509290
C        1.5596931793   -0.5088398137    0.2274260893
C        0.7442129435    0.7484378012   -0.0628098815
H        1.2768667730   -0.9576702714    1.1841030756
H        2.6252760953   -0.2650811336    0.2687654530
H        1.4008138226   -1.2555454785   -0.5497258614
H        0.9529290245    1.5297602513    0.6760095665
C       -0.7647817170    0.5038513882   -0.1001502336
H        1.0650541693    1.1455292585   -1.0327500897
H       -1.2548102832    1.2379406379   -0.7547562887
H       -1.1807107179    0.6348119442    0.9105055438
O       -1.0054706174   -0.8337427075   -0.5438508658
H       -1.9681060194   -0.9637811926   -0.5589892097
12   
Dihedral (-15, -150) Energy -193.674489200
C        1.5719042582   -0.5083383479    0.1630830060
C        0.7335157378    0.7541679510   -0.0273740509
H        1.3258077361   -1.0163491865    1.0988324699
H        2.6345250780   -0.2492671242    0.1837598356
H        1.3989776214   -1.2129581451   -0.6498204444
H        0.9637328288    1.4828659948    0.7568095804
C       -0.7844539871    0.5013842521   -0.0436931605
H        1.0322409137    1.2191628074   -0.9737028777
H       -1.2565870075    1.0926900100   -0.8383221107
H       -1.2280473036    0.8266100661    0.9077866580
O       -1.0473860425   -0.8958094854   -0.2229153565
H       -1.8933124895   -0.9784667331   -0.6906059081
12   
Dihedral (-15, -120) Energy -193.673996120
C        1.5515624979   -0.5128887106    0.1657523816
C        0.7241266640    0.7533253759   -0.0397106393
H        1.3207689488   -0.9915600732    1.1207611214
H        2.6181407335   -0.2701405518    0.1527198378
H        1.3490564978   -1.2393283662   -0.6210742596
H        0.9840586454    1.5040150426    0.7141682151
C       -0.7976593470    0.5115102647    0.0026792170
H        1.0004342549    1.1867604315   -1.0084888590
H       -1.3037972048    1.1034181528   -0.7685811579
H       -1.1921492381    0.8438771066    0.9701666720
O       -1.1262942987   -0.8799958446   -0.1178982235
H       -1.6773363699   -0.9932951710   -0.9066641871
12   
Dihedral (-15, -90) Energy -193.675726560
C        1.5154432364   -0.5242081636    0.1576880162
C        0.7072565373    0.7535714766   -0.0509277637
H        1.2914180200   -0.9854557370    1.1224525141
H        2.5861613038   -0.3035743628    0.1213094235
H        1.2909456402   -1.2608027924   -0.6149160473
H        0.9964791158    1.5102693215    0.6861755112
C       -0.8186524295    0.5365182767    0.0295364717
H        0.9711954084    1.1702412122   -1.0309980704
H       -1.3422952478    1.1452347395   -0.7180305753
H       -1.1771052700    0.8584580341    1.0115148949
O       -1.2143860218   -0.8369934787   -0.0564426314
H       -1.3555614031   -1.0475484523   -0.9935308596
12   
Dihedral (-15, -60) Energy -193.676243490
C        1.4743371386   -0.5411692366    0.1327452850
C        0.6843534333    0.7523364965   -0.0570393960
H        1.2372709438   -1.0182215593    1.0862516922
H        2.5476700820   -0.3337410041    0.1073731019
H        1.2611015339   -1.2637155418   -0.6583739612
H        1.0021282490    1.4947329130    0.6825166530
C       -0.8463958216    0.5719785796    0.0407860871
H        0.9429184493    1.1731763745   -1.0363609336
H       -1.3536401388    1.1993634986   -0.7050554199
H       -1.1964488842    0.8947135120    1.0242268844
O       -1.2948738346   -0.7823434037   -0.0464541292
H       -1.0075099795   -1.1314041321   -0.9067787261
12   
Dihedral (-15, -30) Energy -193.673685690
C        1.4437653716   -0.5557495537    0.0938166512
C        0.6657175683    0.7515482163   -0.0607818330
H        1.1715541424   -1.0814655912    1.0121138482
H        2.5170243272   -0.3509104183    0.1221152316
H        1.2790989068   -1.2354815766   -0.7482422374
H        0.9959113084    1.4628812499    0.7027309673
C       -0.8705147105    0.6037832998    0.0297678474
H        0.9341031408    1.1967929038   -1.0254667851
H       -1.3478913736    1.2479031476   -0.7211443922
H       -1.2207281639    0.9384634816    1.0101576522
O       -1.3639965469   -0.7329652466   -0.0925674527
H       -0.7531368392   -1.2290995242   -0.6586775436
12   
Dihedral (-15, 150) Energy -193.674251160
C        1.5594358213   -0.5131537927    0.1432362724
C        0.7378962849    0.7636363422   -0.0179351964
H        1.2478758114   -1.0823189765    1.0222208180
H        2.6182027940   -0.2615659643    0.2558780954
H        1.4450282035   -1.1611762001   -0.7256248377
H        0.9070637809    1.4306624544    0.8340583300
C       -0.7753347847    0.5217163279   -0.1724125587
H        1.1086737395    1.2988358956   -0.8990684020
H       -1.1909673222    1.1666946380   -0.9577858136
H       -1.2816891799    0.7876691721    0.7652862246
O       -1.0280445679   -0.8554460471   -0.4754154739
H       -1.8972371276   -1.0798570675   -0.1085566320
12   
Dihedral (-15, 180) Energy -193.675361870
C        1.5741076099   -0.5084564694    0.1551756384
C        0.7383369826    0.7580226480   -0.0211658251
H        1.3001479876   -1.0468821673    1.0654556255
H        2.6343730471   -0.2463634022    0.2180157376
H        1.4315326547   -1.1870006418   -0.6856081280
H        0.9348965664    1.4564916440    0.7987247256
C       -0.7762532265    0.5052800919   -0.1094962532
H        1.0725858695    1.2602250863   -0.9356586113
H       -1.2207585655    1.1216058547   -0.9029163702
H       -1.2561472250    0.7971194359    0.8360329909
O       -1.0098030061   -0.8851545022   -0.3523533074
H       -1.9721124083   -1.0091938531   -0.4023549962
12   
Dihedral (0, -150) Energy -193.673055080
C        1.5765342637   -0.5063452685    0.0850295011
C        0.7303581810    0.7632367543    0.0097239650
H        1.3260713058   -1.0977658002    0.9672459816
H        2.6367086630   -0.2409164816    0.1354621954
H        1.4189561267   -1.1385502973   -0.7898131680
H        0.9551691085    1.3936790016    0.8763083823
C       -0.7908456534    0.5082458603   -0.0496651992
H        1.0347859622    1.3399743190   -0.8702672161
H       -1.2055951348    0.9501817832   -0.9646718471
H       -1.2922071103    0.9944024119    0.7978657552
O       -1.0593355719   -0.8992792761   -0.0193390419
H       -1.8797025126   -1.0511867079   -0.5140480344
12   
Dihedral (0, -120) Energy -193.672474730
C        1.5500292994   -0.5140641352    0.0895352685
C        0.7230489151    0.7661404558   -0.0000000015
H        1.3134140786   -1.0760391360    0.9945087107
H        2.6161662641   -0.2688930621    0.1012788390
H        1.3574803420   -1.1695296597   -0.7615440469
H        0.9794712678    1.4192369124    0.8407286147
C       -0.8048341050    0.5260352034   -0.0068100136
H        1.0124407594    1.3123034018   -0.9050684204
H       -1.2542625892    0.9721448118   -0.9016009179
H       -1.2633964592    1.0183477218    0.8578477014
O       -1.1363240609   -0.8679451287    0.0734086625
H       -1.6423304535   -1.1020562025   -0.7184644489
12   
Dihedral (0, -90) Energy -193.674116380
C        1.5102082178   -0.5279820858    0.0832899612
C        0.7079806112    0.7676936608   -0.0106027510
H        1.2698031651   -1.0766307807    0.9951803148
H        2.5814634511   -0.3072223462    0.0808680096
H        1.3024171695   -1.1888583687   -0.7616201835
H        0.9917319306    1.4254889149    0.8175677456
C       -0.8260565849    0.5549303657    0.0133866360
H        0.9934079470    1.2968565381   -0.9272471112
H       -1.2952364766    1.0209534639   -0.8620863371
H       -1.2527153405    1.0372022671    0.8965074173
O       -1.2228813196   -0.8173307065    0.1192424403
H       -1.3092234784   -1.1694220851   -0.7806750695
12   
Dihedral (0, -60) Energy -193.674688050
C        1.4679080189   -0.5460234167    0.0589521850
C        0.6867399693    0.7649869716   -0.0180595061
H        1.1999874349   -1.1141261041    0.9512308271
H        2.5415967387   -0.3419179461    0.0858240508
H        1.2840267016   -1.1826470070   -0.8121221871
H        0.9936156444    1.4047714194    0.8158168060
C       -0.8531203616    0.5895118452    0.0167219684
H        0.9750250609    1.2986819742   -0.9304442530
H       -1.3076446840    1.0737217818   -0.8587738116
H       -1.2709685395    1.0724669459    0.9022166055
O       -1.3016108716   -0.7645164416    0.1149428128
H       -0.9646510532   -1.2392333187   -0.6624870209
12   
Dihedral (0, -30) Energy -193.672307360
C        1.4403026725   -0.5596479951    0.0234479768
C        0.6687706470    0.7597523164   -0.0153294655
H        1.1635790071   -1.1595825725    0.8934459192
H        2.5139454196   -0.3630448826    0.0763315115
H        1.2771684052   -1.1600161511   -0.8785080698
H        0.9774744110    1.3626355515    0.8445448074
C       -0.8759153948    0.6150716628   -0.0043627703
H        0.9741622595    1.3202549330   -0.9047087293
H       -1.2947297110    1.1226973128   -0.8841728836
H       -1.2974570659    1.1032566900    0.8776778627
O       -1.3696524400   -0.7266427555    0.0403387333
H       -0.7267423398   -1.2990432100   -0.4048818971
12   
Dihedral (0, 150) Energy -193.673055440
C        1.5783327476   -0.5055250118    0.0678274525
C        0.7291035791    0.7633708869    0.0205039387
H        1.2769250946   -1.1519848743    0.8931180510
H        2.6313543358   -0.2402341782    0.2009819140
H        1.4811065908   -1.0820469542   -0.8535792631
H        0.8799289408    1.3251368676    0.9485973322
C       -0.7798962773    0.5087321661   -0.1812198654
H        1.0953461174    1.4079224936   -0.7853362025
H       -1.1323974473    1.0091812688   -1.0929884372
H       -1.3435200147    0.9360571908    0.6579964769
O       -1.0368468822   -0.8978363806   -0.2794744447
H       -1.9285431604   -1.0571083416    0.0674100243
12   
Dihedral (0, 180) Energy -193.674025280
C        1.5862618749   -0.5036313890    0.0774499578
C        0.7323838390    0.7621763430    0.0153677002
H        1.3133578050   -1.1234759512    0.9327267850
H        2.6418052056   -0.2311136778    0.1693514895
H        1.4623675433   -1.1090013605   -0.8216384236
H        0.9181229544    1.3597063573    0.9138865883
C       -0.7819460377    0.5021934473   -0.1154064862
H        1.0661697538    1.3740923890   -0.8290391797
H       -1.1679096334    0.9706195375   -1.0314948722
H       -1.3175363156    0.9560821156    0.7300149398
O       -1.0211194810   -0.9084748979   -0.1473645265
H       -1.9810619162   -1.0334979785   -0.2300134471
12   
Dihedral (15, -150) Energy -193.674250760
C        1.5773207842   -0.4979938384    0.0073348567
C        0.7248839716    0.7680481560    0.0470127824
H        1.3275044362   -1.1608187055    0.8357040092
H        2.6368877098   -0.2343809518    0.0766113653
H        1.4237323959   -1.0561129764   -0.9192425521
H        0.9368406449    1.2925915452    0.9852314789
C       -0.7898362864    0.5091051408   -0.0570652297
H        1.0257496021    1.4502848791   -0.7551491492
H       -1.1352059292    0.7847193473   -1.0626381783
H       -1.3389284368    1.1375550578    0.6564356112
O       -1.0726022284   -0.8751475957    0.1798976627
H       -1.8654473885   -1.1021613349   -0.3303025890
12   
Dihedral (15, -120) Energy -193.673468220
C        1.5458020174   -0.5090437111    0.0128172792
C        0.7192581026    0.7736808869    0.0387600643
H        1.3019128012   -1.1450952245    0.8635707883
H        2.6123969172   -0.2684493322    0.0476611776
H        1.3596356995   -1.0882847659   -0.8955371774
H        0.9631085525    1.3198783738    0.9565969367
C       -0.8048868546    0.5345594736   -0.0187419539
H        1.0135896286    1.4281077972   -0.7893138686
H       -1.1845997856    0.8154083586   -1.0088081888
H       -1.3175373531    1.1703673866    0.7112139554
O       -1.1484686916   -0.8302525414    0.2597200863
H       -1.6093256338   -1.1851855799   -0.5141053607
12   
Dihedral (15, -90) Energy -193.674984880
C        1.5032832457   -0.5252645206    0.0073329918
C        0.7054501500    0.7760927803    0.0280459761
H        1.2407907198   -1.1528807020    0.8590607861
H        2.5752382556   -0.3123118387    0.0445351354
H        1.3134617284   -1.1020924113   -0.9034212150
H        0.9726043339    1.3247439570    0.9377465659
C       -0.8263908234    0.5663579752   -0.0054488134
H        1.0048402403    1.4143268560   -0.8108610817
H       -1.2284691419    0.8683492382   -0.9813996142
H       -1.3111001262    1.1939182407    0.7463313902
O       -1.2325419694   -0.7749610100    0.2902802148
H       -1.2662530285   -1.2605930174   -0.5483795238
12   
Dihedral (15, -60) Energy -193.675692050
C        1.4602670131   -0.5437516449   -0.0141514842
C        0.6848006046    0.7718061642    0.0244099935
H        1.1783970267   -1.1840564734    0.8229319119
H        2.5345673615   -0.3514107449    0.0445880779
H        1.2850814303   -1.0971643959   -0.9438674931
H        0.9659269828    1.2983004481    0.9428640122
C       -0.8526663344    0.5983705062   -0.0120231214
H        0.9968302907    1.4151432146   -0.8051034700
H       -1.2382080423    0.9232842028   -0.9893499548
H       -1.3311527097    1.2222159452    0.7450400250
O       -1.3094282320   -0.7280942406    0.2620252538
H       -0.9235100244   -1.3089494777   -0.4135352674
12   
Dihedral (15, -30) Energy -193.673308760
C        1.4383033086   -0.5560394543   -0.0450876669
C        0.6662519346    0.7604077435    0.0345113932
H        1.1805225077   -1.2168556108    0.7862915698
H        2.5128292653   -0.3650516468    0.0082098428
H        1.2557746830   -1.0869839581   -0.9863674757
H        0.9386248294    1.2457825225    0.9778016219
C       -0.8737068077    0.6182992949   -0.0425915305
H        1.0002805892    1.4311684830   -0.7630797334
H       -1.2151496316    0.9778025610   -1.0240485791
H       -1.3562707055    1.2419801170    0.7134726432
O       -1.3818198207   -0.7027051688    0.1586233490
H       -0.7147475394   -1.3321147350   -0.1539195392
12   
Dihedral (15, 150) Energy -193.674489590
C        1.5935347819   -0.4914839156   -0.0093838997
C        0.7184301179    0.7587588745    0.0553164125
H        1.2961924371   -1.2107984164    0.7530972717
H        2.6410728915   -0.2207406048    0.1520767490
H        1.5144563557   -0.9871127810   -0.9801403168
H        0.8482261093    1.2117867699    1.0447131168
C       -0.7773984443    0.4895841499   -0.1865138223
H        1.0671430922    1.5022837260   -0.6689204492
H       -1.0601410511    0.8252143695   -1.1941132477
H       -1.3830909167    1.0632567652    0.5262533988
O       -1.0481852832   -0.9129882041   -0.0732686667
H       -1.9593531861   -1.0120705107    0.2447286265
12   
Dihedral (15, 180) Energy -193.675361830
C        1.5940819047   -0.4922815839   -0.0011153098
C        0.7245022787    0.7626197411    0.0501927899
H        1.3213709580   -1.1854746389    0.7943600451
H        2.6464693755   -0.2183877516    0.1183264039
H        1.4833205052   -1.0190077701   -0.9518296625
H        0.8944142824    1.2536602897    1.0146802820
C       -0.7801319487    0.4930038424   -0.1201872841
H        1.0466883365    1.4759739464   -0.7153361237
H       -1.0985299147    0.7948812867   -1.1286466503
H       -1.3590876885    1.0921301860    0.5959262282
O       -1.0333967833   -0.9034048923    0.0607059443
H       -1.9888114114   -1.0380244980   -0.0532363156
12   
Dihedral (30, -150) Energy -193.677316070
C        1.5757619794   -0.4849926356   -0.0684510172
C        0.7182889058    0.7674446091    0.0851774491
H        1.3289178238   -1.2148580784    0.7015600487
H        2.6360685131   -0.2290555329    0.0148322362
H        1.4183168782   -0.9613002732   -1.0408408819
H        0.9093938184    1.1913849670    1.0778968807
C       -0.7829033229    0.5050286392   -0.0665817672
H        1.0125762721    1.5363646216   -0.6377506732
H       -1.0562521589    0.6138330995   -1.1258480531
H       -1.3645780242    1.2456309608    0.4985828453
O       -1.0902250238   -0.8236242972    0.3686398034
H       -1.8544745935   -1.1301377547   -0.1434166541
12   
Dihedral (30, -120) Energy -193.676422410