4    
Dihedral (-165,) Energy -151.173833395
H        0.9452873328   -0.8651467704   -0.1180177388
O        0.7295273045    0.0712242595    0.0074361905
O       -0.7295273045   -0.0712242595    0.0074361905
H       -0.9452873332    0.8651467704   -0.1180177388
4    
Dihedral (-150,) Energy -151.174164235
H        0.9370180725   -0.8508730908   -0.2338655468
O        0.7291482296    0.0624968458    0.0147356555
O       -0.7291482297   -0.0624968458    0.0147356556
H       -0.9370180721    0.8508730907   -0.2338655468
4    
Dihedral (-135,) Energy -151.174552683
H        0.8275833165    0.9235906436   -0.3455210686
O       -0.0481936023    0.7288702019    0.0217709672
O        0.0481936023   -0.7288702019    0.0217709697
H       -0.8275833165   -0.9235906436   -0.3455210665
4    
Dihedral (-120,) Energy -151.174772623
H       -0.9028163997   -0.4978104849   -0.7716148502
O       -0.7279980350    0.0244106067    0.0267010994
O        0.7275763320    0.0323382721   -0.0296112982
H        0.9095091330   -0.4028354045    0.8178018174
4    
Dihedral (-105,) Energy -151.174558761
H       -0.8828773508   -0.5928976966   -0.7283099954
O       -0.7267252356    0.0291903186   -0.0000188621
O        0.7262125471    0.0398069172   -0.0035194562
H        0.8910140896   -0.5021385070    0.7844656737
4    
Dihedral (-90,) Energy -151.173673512
H        0.8669449083   -0.7135696622   -0.6357370732
O        0.7248972605   -0.0310652151    0.0400572166
O       -0.7248972605    0.0310652151    0.0400572139
H       -0.8669449071    0.7135696618   -0.6357370770
4    
Dihedral (-75,) Energy -151.171998853
H        0.8471418741   -0.6647991796   -0.7121394714
O        0.7221026171   -0.0692629811    0.0448712608
O       -0.7221026171    0.0692629811    0.0448712608
H       -0.8471418742    0.6647991797   -0.7121394714
4    
Dihedral (-60,) Energy -151.169620294
H        0.6143946856    0.8327693672   -0.7755371809
O        0.1140355955    0.7170324809    0.0488658929
O       -0.1140355955   -0.7170324809    0.0488658929
H       -0.6143946855   -0.8327693672   -0.7755371809
4    
Dihedral (-45,) Energy -151.166860684
H        0.8256452425   -0.5641712506   -0.8250217183
O        0.7086918626   -0.1641860636    0.0519838686
O       -0.7086918626    0.1641860636    0.0519838686
H       -0.8256452427    0.5641712507   -0.8250217184
4    
Dihedral (-30,) Energy -151.164244095
H        0.8271969618   -0.5158263108   -0.8600922249
O        0.6958548306   -0.2179655442    0.0541936293
O       -0.6958548307    0.2179655442    0.0541936293
H       -0.8271969617    0.5158263107   -0.8600922248
4    
Dihedral (-15,) Energy -151.162361816
H        0.8386820687   -0.4709879227   -0.8804289860
O        0.6777442458   -0.2732499428    0.0554750302
O       -0.6777442458    0.2732499428    0.0554750301
H       -0.8386820687    0.4709879227   -0.8804289860
4    
Dihedral (0,) Energy -151.161675771
H        0.8546626851   -0.4279344962   -0.8876331159
O        0.6538250476   -0.3273737228    0.0559289558
O       -0.6538250476    0.3273737228    0.0559289558
H       -0.8546626852    0.4279344963   -0.8876331159
4    
Dihedral (15,) Energy -151.162361529
H        0.8783575048   -0.3887745152   -0.8807979792
O        0.6247268362   -0.3790626801    0.0554982801
O       -0.6247268362    0.3790626800    0.0554982801
H       -0.8783575050    0.3887745153   -0.8807979792
4    
Dihedral (30,) Energy -151.164244294
H        0.9088686894   -0.3537720101   -0.8600198577
O        0.5914534960   -0.4268022396    0.0541890696
O       -0.5914534960    0.4268022396    0.0541890695
H       -0.9088686896    0.3537720103   -0.8600198578
4    
Dihedral (45,) Energy -151.166860824
H        0.9471892676   -0.3242697153   -0.8246908532
O        0.5557136078   -0.4690308323    0.0519630209
O       -0.5557136078    0.4690308323    0.0519630213
H       -0.9471892671    0.3242697149   -0.8246908533
4    
Dihedral (60,) Energy -151.169620294
H       -1.0157399677    0.1981357136   -0.7755371929
O       -0.5688368919    0.4511809060    0.0488658936
O        0.5688368919   -0.4511809060    0.0488658936
H        1.0157399678   -0.1981357136   -0.7755371930
4    
Dihedral (75,) Energy -151.171998853
H       -0.1746436222   -1.0625931925   -0.7121395968
O       -0.4851891245   -0.5392773214    0.0448712687
O        0.4851891245    0.5392773214    0.0448712687
H        0.1746436222    1.0625931925   -0.7121395968
4    
Dihedral (90,) Energy -151.173673521
H       -1.1119037553    0.1562525382   -0.6357394428
O       -0.5130136733    0.5130729858    0.0400573645
O        0.5130136733   -0.5130729858    0.0400573644
H        1.1119037554   -0.1562525382   -0.6357394428
4    
Dihedral (105,) Energy -151.174558723
H        1.1580010128   -0.1411715068   -0.5482482203
O        0.4900964580   -0.5362057444    0.0345446221
O       -0.4900964580    0.5362057444    0.0345446220
H       -1.1580010129    0.1411715068   -0.5482482203
4    
Dihedral (120,) Energy -151.174772693
H       -1.1996623217    0.1295351374   -0.4509192113
O       -0.4717548051    0.5550750950    0.0284120097
O        0.4717548051   -0.5550750950    0.0284120096
H        1.1996623218   -0.1295351375   -0.4509192113
4    
Dihedral (135,) Energy -151.174552674
H       -1.2343047078    0.1207877301   -0.3455305075
O       -0.4573862622    0.5695263913    0.0217715632
O        0.4573862622   -0.5695263913    0.0217715632
H        1.2343047076   -0.1207877300   -0.3455305075
4    
Dihedral (150,) Energy -151.174164395
H       -1.2604747273    0.1147779639   -0.2339023818
O       -0.4472509096    0.5797926881    0.0147379765
O        0.4472509097   -0.5797926881    0.0147379765
H        1.2604747269   -0.1147779637   -0.2339023818
4    
Dihedral (165,) Energy -151.173833283
H        0.1109800230    1.2761231850   -0.1180446960
O        0.5860152684    0.4407845458    0.0074378890
O       -0.5860152684   -0.4407845458    0.0074378890
H       -0.1109800231   -1.2761231851   -0.1180446960
4    
Dihedral (180,) Energy -151.173706126
H        1.2820329964   -0.1099742072   -0.0000036003
O        0.4390294408   -0.5880558116    0.0000002268
O       -0.4390294408    0.5880558116    0.0000002269
H       -1.2820329965    0.1099742072   -0.0000036003
