4    
Dihedral (-165,) Energy -151.173833395
H       -0.9452873366    0.8651467738   -0.1180177393
O       -0.7295273072   -0.0712242599    0.0074361905
O        0.7295273072    0.0712242599    0.0074361905
H        0.9452873368   -0.8651467738   -0.1180177393
4    
Dihedral (-150,) Energy -151.174164235
H        0.9370180758   -0.8508730940   -0.2338655478
O        0.7291482323    0.0624968461    0.0147356556
O       -0.7291482323   -0.0624968461    0.0147356556
H       -0.9370180757    0.8508730939   -0.2338655478
4    
Dihedral (-135,) Energy -151.174552683
H        0.8275833198    0.9235906472   -0.3455210700
O       -0.0481936025    0.7288702048    0.0217709673
O        0.0481936025   -0.7288702048    0.0217709697
H       -0.8275833198   -0.9235906472   -0.3455210678
4    
Dihedral (-120,) Energy -151.174772623
H       -0.9028164016   -0.4978104869   -0.7716148527
O       -0.7279980372    0.0244106070    0.0267011001
O        0.7275763341    0.0323382721   -0.0296112989
H        0.9095091357   -0.4028354062    0.8178018200
4    
Dihedral (-105,) Energy -151.174558761
H       -0.8828773540   -0.5928976990   -0.7283099982
O       -0.7267252390    0.0291903188   -0.0000188620
O        0.7262125504    0.0398069174   -0.0035194563
H        0.8910140929   -0.5021385090    0.7844656767
4    
Dihedral (-90,) Energy -151.173673512
H        0.8669449245   -0.7135696695   -0.6357370773
O        0.7248972726   -0.0310652211    0.0400572133
O       -0.7248972724    0.0310652211    0.0400572172
H       -0.8669449269    0.7135696697   -0.6357370728
4    
Dihedral (-75,) Energy -151.171998853
H        0.8471418773   -0.6647991822   -0.7121394742
O        0.7221026197   -0.0692629813    0.0448712610
O       -0.7221026197    0.0692629813    0.0448712610
H       -0.8471418774    0.6647991822   -0.7121394742
4    
Dihedral (-60,) Energy -151.169620294
H        0.8327693701   -0.6143946879   -0.7755371840
O        0.7170324834   -0.1140355958    0.0488658931
O       -0.7170324835    0.1140355958    0.0488658931
H       -0.8327693701    0.6143946878   -0.7755371840
4    
Dihedral (-45,) Energy -151.166860684
H       -0.5641712529   -0.8256452458   -0.8250217215
O       -0.1641860642   -0.7086918651    0.0519838688
O        0.1641860642    0.7086918651    0.0519838688
H        0.5641712529    0.8256452458   -0.8250217215
4    
Dihedral (-30,) Energy -151.164244095
H       -0.8271969651    0.5158263129   -0.8600922281
O       -0.6958548332    0.2179655451    0.0541936295
O        0.6958548332   -0.2179655451    0.0541936295
H        0.8271969651   -0.5158263129   -0.8600922281
4    
Dihedral (-15,) Energy -151.162361816
H       -0.8386820721    0.4709879247   -0.8804289893
O       -0.6777442483    0.2732499439    0.0554750304
O        0.6777442483   -0.2732499439    0.0554750304
H        0.8386820721   -0.4709879247   -0.8804289893
4    
Dihedral (0,) Energy -151.161675771
H       -0.8546626885    0.4279344980   -0.8876331193
O       -0.6538250499    0.3273737240    0.0559289561
O        0.6538250500   -0.3273737240    0.0559289561
H        0.8546626885   -0.4279344980   -0.8876331192
4    
Dihedral (15,) Energy -151.162361529
H       -0.8783575083    0.3887745168   -0.8807979827
O       -0.6247268384    0.3790626815    0.0554982803
O        0.6247268384   -0.3790626815    0.0554982803
H        0.8783575082   -0.3887745167   -0.8807979827
4    
Dihedral (30,) Energy -151.164244294
H       -0.9088686930    0.3537720116   -0.8600198610
O       -0.5914534982    0.4268022412    0.0541890698
O        0.5914534982   -0.4268022412    0.0541890698
H        0.9088686931   -0.3537720117   -0.8600198610
4    
Dihedral (45,) Energy -151.166860824
H       -0.9471892760    0.3242697186   -0.8246908582
O       -0.5557136063    0.4690308303    0.0519630215
O        0.5557136063   -0.4690308303    0.0519630213
H        0.9471892759   -0.3242697186   -0.8246908581
4    
Dihedral (60,) Energy -151.169620294
H       -1.0157399721    0.1981357145   -0.7755371959
O       -0.5688368941    0.4511809075    0.0488658938
O        0.5688368941   -0.4511809075    0.0488658938
H        1.0157399720   -0.1981357145   -0.7755371959
4    
Dihedral (75,) Energy -151.171998853
H       -1.0625931968    0.1746436230   -0.7121395995
O       -0.5392773234    0.4851891261    0.0448712689
O        0.5392773234   -0.4851891261    0.0448712689
H        1.0625931969   -0.1746436230   -0.7121395995
4    
Dihedral (90,) Energy -151.173673521
H       -1.1119037585    0.1562525383   -0.6357394455
O       -0.5130136743    0.5130729876    0.0400573646
O        0.5130136744   -0.5130729876    0.0400573646
H        1.1119037585   -0.1562525382   -0.6357394455
4    
Dihedral (105,) Energy -151.174558723
H       -0.1411715073   -1.1580010172   -0.5482482224
O       -0.5362057467   -0.4900964601    0.0345446222
O        0.5362057467    0.4900964601    0.0345446222
H        0.1411715073    1.1580010172   -0.5482482224
4    
Dihedral (120,) Energy -151.174772693
H        1.1996623261   -0.1295351378   -0.4509192132
O        0.4717548069   -0.5550750974    0.0284120098
O       -0.4717548069    0.5550750974    0.0284120098
H       -1.1996623261    0.1295351378   -0.4509192132
4    
Dihedral (135,) Energy -151.174552674
H        1.2343047126   -0.1207877306   -0.3455305088
O        0.4573862641   -0.5695263934    0.0217715633
O       -0.4573862641    0.5695263934    0.0217715633
H       -1.2343047125    0.1207877306   -0.3455305087
4    
Dihedral (150,) Energy -151.174164395
H       -0.1147779641   -1.2604747322   -0.2339023828
O       -0.5797926909   -0.4472509116    0.0147379766
O        0.5797926909    0.4472509116    0.0147379765
H        0.1147779642    1.2604747322   -0.2339023828
4    
Dihedral (165,) Energy -151.173833283
H        1.2761231899   -0.1109800234   -0.1180446964
O        0.4407845473   -0.5860152706    0.0074378890
O       -0.4407845473    0.5860152707    0.0074378890
H       -1.2761231898    0.1109800233   -0.1180446964
4    
Dihedral (180,) Energy -151.173706126
H        1.2820330014   -0.1099742084   -0.0000036003
O        0.4390294422   -0.5880558142    0.0000002268
O       -0.4390294422    0.5880558142    0.0000002268
H       -1.2820330015    0.1099742084   -0.0000036003
