12   
Dihedral (-165, -165) Energy -194.293671494
C        1.6495553577   -0.2652372754    0.7172288424
C        0.7699127557    0.2862175346   -0.4154109209
H        1.4798224468    0.2718640550    1.6595001950
H        2.7124714182   -0.1698999851    0.4702015998
H        1.4417633467   -1.3273401086    0.8965542870
H        1.0195446460    1.3323370924   -0.6306151996
C       -0.7208216811    0.1750538917   -0.1099753652
H        0.9560810738   -0.2774738401   -1.3384790873
H       -1.0171976679    0.9187302216    0.6455555075
H       -0.9482328097   -0.8237788492    0.2950150490
O       -1.4376583594    0.3814966202   -1.3635921098
H       -2.3839349119    0.5562358700   -1.1919532822
12   
Dihedral (-165, -150) Energy -194.293140974
C        1.6545392761   -0.2530726148    0.7196918231
C        0.7650078477    0.2737304069   -0.4170228222
H        1.4760609546    0.2889909817    1.6575416987
H        2.7156987929   -0.1421930381    0.4715480379
H        1.4644659635   -1.3169004798    0.9082025509
H        0.9964505986    1.3226371973   -0.6402338020
C       -0.7242721935    0.1401040068   -0.1102588610
H        0.9611138169   -0.2928743053   -1.3362134647
H       -1.0303960786    0.8816467772    0.6427954317
H       -0.9375490810   -0.8592515059    0.2985370613
O       -1.4565654222    0.3223476052   -1.3606227026
H       -2.3370596845    0.7100773186   -1.1926761099
12   
Dihedral (-165, -135) Energy -194.292581866
C        1.6581849816   -0.2405159531    0.7205177935
C        0.7576849204    0.2637138477   -0.4180328616
H        1.4729836326    0.3054314405    1.6548747417
H        2.7170272853   -0.1149373686    0.4695131444
H        1.4849839233   -1.3057440959    0.9172100383
H        0.9751211021    1.3139398431   -0.6509766820
C       -0.7294717920    0.1107097169   -0.1050861802
H        0.9588705245   -0.3078775231   -1.3329440380
H       -1.0432698385    0.8438341245    0.6521442613
H       -0.9268710635   -0.8918255724    0.3005092807
O       -1.4881205547    0.2686541249   -1.3449101198
H       -2.2610942919    0.8486422636   -1.2095439455
12   
Dihedral (-165, -120) Energy -194.292424869
C        1.6531157444   -0.2644987545    0.7094715936
C        0.7375174983    0.1887512251   -0.4386959963
H        1.5454374482    0.3797701111    1.5919012955
H        2.7057635671   -0.2375086263    0.4076401256
H        1.4192062968   -1.2914225015    1.0163258646
H        1.0097961459    1.1971074199   -0.7774817780
C       -0.7430099335    0.1584152529   -0.0588573366
H        0.8655839827   -0.4767962538   -1.3016621698
H       -0.9824657246    0.9625924285    0.6515208859
H       -0.9818407476   -0.7958786704    0.4284336686
O       -1.5660558648    0.2480407291   -1.2647145052
H       -2.1400154995    1.0364486157   -1.2379450745
12   
Dihedral (-165, -105) Energy -194.292842002
C        1.6528083426   -0.2547600165    0.7034536437
C        0.7219935736    0.1847909469   -0.4380614354
H        1.5443095578    0.3901798472    1.5852241790
H        2.7025652854   -0.2159351821    0.3930236314
H        1.4335287027   -1.2836842013    1.0143707917
H        0.9843676492    1.1952007929   -0.7809340993
C       -0.7556377286    0.1406669883   -0.0427567436
H        0.8481673784   -0.4819759862   -1.3001214477
H       -0.9969390754    0.9328183203    0.6805845239
H       -0.9800863255   -0.8210318995    0.4333525812
O       -1.6150357371    0.2155855701   -1.2231559538
H       -2.0189490438    1.1008011620   -1.3013203530
12   
Dihedral (-165, -90) Energy -194.293604803
C        1.6523939899   -0.2474771454    0.6950926163
C        0.7046506331    0.1850495495   -0.4354299118
H        1.5440622605    0.3927106191    1.5802372560
H        2.6985224876   -0.1944490127    0.3747487274
H        1.4485572200   -1.2801669870    1.0037462640
H        0.9574070446    1.1987395284   -0.7780364800
C       -0.7687862058    0.1284592927   -0.0218747647
H        0.8269016859   -0.4795317447   -1.2997218240
H       -1.0058319501    0.9109658078    0.7140611339
H       -0.9830569663   -0.8392217717    0.4437014138
O       -1.6612127333    0.1953127197   -1.1758672867
H       -1.8857363852    1.1245868295   -1.3789070399
12   
Dihedral (-165, -75) Energy -194.294257288
C        1.6514967124   -0.2434181421    0.6848019817
C        0.6855537120    0.1901422008   -0.4300540493
H        1.5455697730    0.3863568002    1.5775417817
H        2.6931504544   -0.1749603194    0.3531034242
H        1.4625624056   -1.2814362752    0.9844187628
H        0.9284594411    1.2085704479   -0.7673115945
C       -0.7824202831    0.1215486248    0.0029962595
H        0.8024147726   -0.4680997936   -1.3002220989
H       -1.0108915813    0.8977814059    0.7491417203
H       -0.9894305658   -0.8502499190    0.4610518670
O       -1.7013351820    0.1888801503   -1.1279189429
H       -1.7482630936    1.1055776175   -1.4669395431
12   
Dihedral (-165, -60) Energy -194.294398385
C        1.6498166227   -0.2429036039    0.6733167966
C        0.6661128673    0.2006827666   -0.4219405300
H        1.5498626586    0.3720219086    1.5768533437
H        2.6864638469   -0.1607442040    0.3294116902
H        1.4723806976   -1.2868817733    0.9582999899
H        0.9001650998    1.2254062094   -0.7473310330
C       -0.7959335652    0.1216725083    0.0298084052
H        0.7765978456   -0.4460251202   -1.3020865023
H       -1.0129438621    0.8941852458    0.7837820000
H       -0.9988713468   -0.8526510096    0.4831112699
O       -1.7349476177    0.1991640377   -1.0827304995
H       -1.6161527002    1.0473287870   -1.5572866816
12   
Dihedral (-165, -45) Energy -194.293896504
C        1.6470401331   -0.2451504772    0.6616245847
C        0.6489111417    0.2168032792   -0.4126800354
H        1.5552183336    0.3518436389    1.5777744010
H        2.6791446546   -0.1524199252    0.3070521739
H        1.4759267314   -1.2949894358    0.9276859715
H        0.8771643357    1.2478963973   -0.7217031988
C       -0.8077944063    0.1289385767    0.0544414267
H        0.7528187269   -0.4153597876   -1.3049625735
H       -1.0140986996    0.8973091137    0.8154293990
H       -1.0065726497   -0.8481830318    0.5037669501
O       -1.7621499218    0.2253836568   -1.0438867761
H       -1.5020300288    0.9536018131   -1.6443173197
12   
Dihedral (-165, -30) Energy -194.292954385
C        1.6431235172   -0.2496051785    0.6507792387
C        0.6356667981    0.2368310776   -0.4037513383
H        1.5592054647    0.3271540281    1.5803699639
H        2.6719644289   -0.1489668741    0.2890811214
H        1.4734126452   -1.3049116936    0.8946530805
H        0.8615836069    1.2735856277   -0.6937015086
C       -0.8170252972    0.1411127355    0.0740695321
H        0.7346447192   -0.3791220780   -1.3088806945
H       -1.0163288920    0.9038032719    0.8415257547
H       -1.0088227739   -0.8399108784    0.5198145427
O       -1.7839299797    0.2625549858   -1.0120370638
H       -1.4188911619    0.8283283483   -1.7218060592
12   
Dihedral (-165, -15) Energy -194.292027569
C        1.6393404360   -0.2561521792    0.6416646797
C        0.6282303305    0.2599908649   -0.3949362262
H        1.5619264825    0.2986437229    1.5849753309
H        2.6665639086   -0.1499621552    0.2770772921
H        1.4669076033   -1.3162963540    0.8610851507
H        0.8566853462    1.3010403308   -0.6642178365
C       -0.8222306681    0.1589376314    0.0889448623
H        0.7228068362   -0.3383924824   -1.3134404619
H       -1.0201679074    0.9141332425    0.8620341255
H       -1.0054716363   -0.8274740268    0.5299190327
O       -1.7984672477    0.3104308489   -0.9863969601
H       -1.3692030041    0.6828965215   -1.7817135755
12   
Dihedral (-165, 0) Energy -194.291599537
C        1.6356910228   -0.2649213421    0.6359455613
C        0.6279974423    0.2857745519   -0.3859704278
H        1.5657748839    0.2690847135    1.5916841411
H        2.6632256067   -0.1607491747    0.2716996435
H        1.4526543361   -1.3279086843    0.8318007049
H        0.8632287108    1.3301014211   -0.6327147395
C       -0.8229137832    0.1810707641    0.0966517548
H        0.7208827160   -0.2928530064   -1.3184019634
H       -1.0259178052    0.9263850655    0.8753989548
H       -0.9989177789   -0.8122622365    0.5297131308
O       -1.8020113752    0.3673622540   -0.9707781159
H       -1.3493041005    0.5291530139   -1.8214320751
12   
Dihedral (-165, 15) Energy -194.291874575
C        1.6358575022   -0.2759884091    0.6336018606
C        0.6354239576    0.3089482287   -0.3762090823
H        1.5762294109    0.2417895666    1.5988780943
H        2.6643579032   -0.1816456095    0.2693743720
H        1.4364581612   -1.3393466414    0.8112427884
H        0.8759821406    1.3571698677   -0.5969316941
C       -0.8182547615    0.1969206487    0.0977413173
H        0.7316148698   -0.2457865560   -1.3236673444
H       -1.0336663908    0.9302612886    0.8820316152
H       -0.9888883740   -0.8044604952    0.5190980185
O       -1.7924246659    0.4183441321   -0.9662550686
H       -1.3553337073    0.3657917993   -1.8388208848
12   
Dihedral (-165, 30) Energy -194.292651066
C        1.6347505870   -0.2848600495    0.6310343206
C        0.6451517681    0.3319063347   -0.3704803218
H        1.5718994590    0.2090222287    1.6086191225
H        2.6665473094   -0.1884031994    0.2767479161
H        1.4277154864   -1.3511146803    0.7815330051
H        0.8928286949    1.3827567146   -0.5667354633
C       -0.8122881631    0.2182312669    0.0930640990
H        0.7445671587   -0.1995610274   -1.3312474923
H       -1.0374833448    0.9438609510    0.8797215430
H       -0.9851794061   -0.7882988485    0.5054044052
O       -1.7769240749    0.4722915564   -0.9702587676
H       -1.3979054685    0.2067663744   -1.8318660701
12   
Dihedral (-165, 45) Energy -194.293441597
C        1.6356672286   -0.2921777204    0.6314946757
C        0.6593135380    0.3522178504   -0.3656166964
H        1.5663518917    0.1796691120    1.6195942414
H        2.6716022204   -0.1940183354    0.2898433247
H        1.4217675285   -1.3605799526    0.7565149564
H        0.9118633179    1.4059489090   -0.5367671012
C       -0.8034641881    0.2355208421    0.0816249967
H        0.7652261691   -0.1558662955   -1.3379607609
H       -1.0379830159    0.9546212715    0.8704556613
H       -0.9842631968   -0.7746225247    0.4837735688
O       -1.7528871291    0.5188281201   -0.9865284842
H       -1.4720533552    0.0600466354   -1.8040516723
12   
Dihedral (-165, 60) Energy -194.293792248
C        1.6393466848   -0.2948749939    0.6293466750
C        0.6776683431    0.3814332289   -0.3609803110
H        1.5548680234    0.1434654010    1.6317846630
H        2.6804867018   -0.1850905356    0.3074469940
H        1.4254121900   -1.3672704621    0.7160280277
H        0.9308407645    1.4400667278   -0.4950002123
C       -0.7915350670    0.2525933584    0.0621824030
H        0.7950878359   -0.0932835451   -1.3480227623
H       -1.0364068839    0.9552660992    0.8623457534
H       -0.9815980689   -0.7651810241    0.4403708519
O       -1.7212932122    0.5711080119   -1.0133329834
H       -1.5729325537   -0.0387041545   -1.7643302955
12   
Dihedral (-165, 75) Energy -194.293501655
C        1.6420142179   -0.2969482070    0.6339419630
C        0.6948564017    0.3984630646   -0.3572681363
H        1.5418345480    0.1198277847    1.6442657726
H        2.6880008321   -0.1794940958    0.3308298797
H        1.4289528028   -1.3714748465    0.6950502339
H        0.9482364220    1.4598614665   -0.4655422787
C       -0.7801990305    0.2631408634    0.0427517144
H        0.8233489052   -0.0540995714   -1.3522579371
H       -1.0320939725    0.9556460445    0.8501334374
H       -0.9803485579   -0.7581006272    0.4045904086
O       -1.6882331849    0.6043400656   -1.0460026027
H       -1.7020901144   -0.1205138321   -1.7026151793
12   
Dihedral (-165, 90) Energy -194.292722462
C        1.6461017785   -0.2947531149    0.6399089691
C        0.7135059195    0.4117913346   -0.3573036766
H        1.5266287074    0.1051333512    1.6550871020
H        2.6967640079   -0.1678992920    0.3572942121
H        1.4376340570   -1.3712992767    0.6801696953
H        0.9653629595    1.4754228921   -0.4454068600
C       -0.7669357431    0.2686311571    0.0169770821
H        0.8550387508   -0.0246227524   -1.3566371506
H       -1.0283897190    0.9482250930    0.8334824833
H       -0.9733903814   -0.7571585425    0.3596861653
O       -1.6476113701    0.6257911800   -1.0917526085
H       -1.8384534095   -0.1633402864   -1.6353257253
12   
Dihedral (-165, 105) Energy -194.291886387
C        1.6501042133   -0.2927047509    0.6501248112
C        0.7290455867    0.4131460079   -0.3582949022
H        1.5145042437    0.1020081222    1.6653659742
H        2.7041132962   -0.1596738539    0.3831184751
H        1.4466371986   -1.3705498251    0.6825105606
H        0.9780868471    1.4781447073   -0.4386020803
C       -0.7548249948    0.2626557442   -0.0060191610
H        0.8818638310   -0.0185830424   -1.3570118249
H       -1.0274983667    0.9293414623    0.8191566005
H       -0.9610463763   -0.7683032677    0.3189605207
O       -1.6050273048    0.6244099686   -1.1393922804
H       -1.9774197239   -0.1761754043   -1.5551616917
12   
Dihedral (-165, 120) Energy -194.291485501
C        1.6540166598   -0.2876900137    0.6602079671
C        0.7421257430    0.4112670173   -0.3611950221
H        1.5024220203    0.1065606701    1.6734014655
H        2.7104311470   -0.1471627256    0.4068635002
H        1.4581051156   -1.3669974093    0.6902483563
H        0.9873478629    1.4775625066   -0.4383854201
C       -0.7436398839    0.2524409732   -0.0279459692
H        0.9053947050   -0.0200255110   -1.3575397874
H       -1.0289924354    0.9050744727    0.8061470020
H       -0.9449941080   -0.7849752432    0.2785901148
O       -1.5605594908    0.6128670041   -1.1869708659
H       -2.1071817646   -0.1431224445   -1.4717660833
12   
Dihedral (-165, 135) Energy -194.291750487
C        1.6595004369   -0.2733553440    0.6647312105
C        0.7553540342    0.4199695487   -0.3671367102
H        1.4824794463    0.1082069474    1.6786863261
H        2.7177045865   -0.1118570415    0.4322568136
H        1.4820646650   -1.3560791239    0.6804094213
H        0.9878856291    1.4900106153   -0.4324469576
C       -0.7315759863    0.2378428875   -0.0600295430
H        0.9377589250   -0.0022052716   -1.3634564857
H       -1.0386431372    0.8673501452    0.7860852228
H       -0.9209514523   -0.8100123229    0.2186832387
O       -1.5119621125    0.6002107645   -1.2423341836
H       -2.2090822828   -0.0611367776   -1.4113931999
12   
Dihedral (-165, 150) Energy -194.292512881
C        1.6623857658   -0.2647838246    0.6733246587
C        0.7611575414    0.4108300460   -0.3724795120
H        1.4714505854    0.1222975601    1.6826299928
H        2.7208269524   -0.0930183827    0.4494396836
H        1.4969921279   -1.3492191373    0.6951199282
H        0.9814204709    1.4832852266   -0.4411997572
C       -0.7252453373    0.2122115158   -0.0808641659
H        0.9576854395   -0.0150802585   -1.3641992327
H       -1.0479397207    0.8347328737    0.7662797713
H       -0.9050891726   -0.8400914359    0.1897589364
O       -1.4767904195    0.5621830779   -1.2833212788
H       -2.3008010863    0.0408393705   -1.3366016818
12   
Dihedral (-165, 165) Energy -194.293330344
C        1.6652552177   -0.2557254623    0.6804669294
C        0.7636321285    0.3981185645   -0.3783864780
H        1.4592199500    0.1361749134    1.6849404131
H        2.7228228640   -0.0692174940    0.4644699148
H        1.5163263172   -1.3422970277    0.7091098942
H        0.9668790030    1.4736577922   -0.4512339830
C       -0.7211135567    0.1793234277   -0.0993086232
H        0.9760631117   -0.0303512876   -1.3656424294
H       -1.0586505430    0.8021324232    0.7430524426
H       -0.8915742500   -0.8745053933    0.1732712728
O       -1.4516485559    0.5121578612   -1.3173454909
H       -2.3653586886    0.1681648103   -1.2711995955
12   
Dihedral (-165, 180) Energy -194.293779914
C        1.6440427623   -0.2770687932    0.7132887973
C        0.7728888812    0.2994123041   -0.4135299672
H        1.4845425158    0.2544721379    1.6604324276
H        2.7081618400   -0.1976316988    0.4658218150
H        1.4184630452   -1.3371012980    0.8833841695
H        1.0425360581    1.3421662563   -0.6208190135
C       -0.7189583055    0.2133021844   -0.1050472265
H        0.9459111305   -0.2608549410   -1.3410037877
H       -1.0033014204    0.9557774771    0.6564641559
H       -0.9589077541   -0.7855849451    0.2935754008
O       -1.4331144840    0.4425676941   -1.3554789376
H       -2.3987831036    0.3971099154   -1.2089403006
12   
Dihedral (-150, -165) Energy -194.291936730
C        1.6526776138   -0.3122504582    0.6959774696
C        0.7802645976    0.3562567839   -0.3780535109
H        1.4983276598    0.1385356655    1.6851154456
H        2.7167709951   -0.2166756126    0.4533603480
H        1.4209757735   -1.3812077066    0.7767144399
H        1.0627415312    1.4071001292   -0.5151506879
C       -0.7179138105    0.2465439958   -0.0858990485
H        0.9460827242   -0.1419016617   -1.3417399500
H       -1.0623175392    1.0851824079    0.5372976770
H       -0.9248844563   -0.6854635132    0.4635245760
O       -1.4123265495    0.2224155848   -1.3703697886
H       -2.3673050551    0.3913341007   -1.2460777685
12   
Dihedral (-150, -150) Energy -194.291433227
C        1.6591803328   -0.3007349997    0.6964352968
C        0.7711688054    0.3426030064   -0.3801746106
H        1.5032294972    0.1583316912    1.6815214927
H        2.7205202816   -0.1922563477    0.4472387792
H        1.4435229295   -1.3719989378    0.7899932020
H        1.0351738736    1.3970738293   -0.5283695391
C       -0.7246021027    0.2102509306   -0.0817733831
H        0.9422211997   -0.1610704843   -1.3400249941
H       -1.0787999672    1.0452181059    0.5399676794
H       -0.9155650454   -0.7217511213    0.4715756025
O       -1.4353295106    0.1612921730   -1.3583749455
H       -2.3309535331    0.5413506904   -1.2710032449
12   
Dihedral (-150, -135) Energy -194.290879824
C        1.6633107603   -0.2889476945    0.6948998937
C        0.7592596657    0.3315844982   -0.3820061087
H        1.5104759235    0.1798073354    1.6759294945
H        2.7213560184   -0.1721660870    0.4356655694
H        1.4597952027   -1.3612638835    0.8026318734
H        1.0082910926    1.3883942128   -0.5419372401
C       -0.7335669524    0.1789662673   -0.0732814353
H        0.9317448417   -0.1789917609   -1.3379033983
H       -1.0958173100    1.0045281960    0.5552404146
H       -0.9054713804   -0.7570837697    0.4769554641
O       -1.4720848283    0.1059972836   -1.3346307477
H       -2.2662803196    0.6726241744   -1.3083529372
12   
Dihedral (-150, -120) Energy -194.290725959
C        1.6621177118   -0.2901011172    0.6961303802
C        0.7469333121    0.2940261715   -0.3920408457
H        1.5326638918    0.2237620888    1.6577671878
H        2.7168621951   -0.1996439915    0.4140055410
H        1.4462156784   -1.3535975926    0.8548854811
H        1.0114534713    1.3377735242   -0.6068391355
C       -0.7427356758    0.1793502133   -0.0469944398
H        0.8924757643   -0.2651278479   -1.3248992312
H       -1.0798023540    1.0263911597    0.5662138406
H       -0.9150654863   -0.7370608059    0.5323829762
O       -1.5335481026    0.0575003783   -1.2729924202
H       -2.1722143895    0.7908833397   -1.3522129683
12   
Dihedral (-150, -105) Energy -194.291143355
C        1.6630117297   -0.2818272465    0.6900032093
C        0.7325689236    0.2900495127   -0.3921170199
H        1.5381943288    0.2360952779    1.6499976859
H        2.7143502469   -0.1847971214    0.3976004439
H        1.4566935235   -1.3460977477    0.8561395350
H        0.9895050121    1.3354933471   -0.6110545734
C       -0.7536536679    0.1647893904   -0.0293691753
H        0.8731916401   -0.2713751999   -1.3242152116
H       -1.0898412434    1.0010255972    0.5991495882
H       -0.9108516801   -0.7591238687    0.5395242332
O       -1.5822380703    0.0288234889   -1.2276718264
H       -2.0561954870    0.8608483507   -1.4183536733
12   
Dihedral (-150, -90) Energy -194.291893813
C        1.6607619023   -0.2773892335    0.6795872870
C        0.7133379835    0.2862713044   -0.3924775496
H        1.5449376441    0.2434698824    1.6390344083
H        2.7078195793   -0.1760783906    0.3736819155
H        1.4616479417   -1.3419955418    0.8517537588
H        0.9664823197    1.3315044921   -0.6187949763
C       -0.7679625827    0.1601736463   -0.0056115983
H        0.8428975709   -0.2805644943   -1.3230739381
H       -1.0934579775    0.9940644176    0.6325251854
H       -0.9172533692   -0.7657175804    0.5596943246
O       -1.6330587518    0.0140453982   -1.1744194375
H       -1.9251362568    0.8901316061   -1.4949621919
12   
Dihedral (-150, -75) Energy -194.292503376
C        1.6588146153   -0.2773285889    0.6665703398
C        0.6943149729    0.2873211534   -0.3899582026
H        1.5540061974    0.2400866053    1.6290203368
H        2.7011675332   -0.1713773101    0.3466045672
H        1.4652003699   -1.3430295363    0.8374274694
H        0.9445780963    1.3332355299   -0.6174744999
C       -0.7812580007    0.1625475847    0.0212838979
H        0.8115547228   -0.2796072431   -1.3225656121
H       -1.0913796497    0.9982185503    0.6658272821
H       -0.9281739607   -0.7631021560    0.5857702003
O       -1.6758158380    0.0167589725   -1.1231006951
H       -1.7821019895    0.8767029701   -1.5780771907
12   
Dihedral (-150, -60) Energy -194.292574857
C        1.6521440557   -0.2829136189    0.6510194425
C        0.6724097775    0.2871067123   -0.3887031818
H        1.5613790636    0.2314137437    1.6164092007
H        2.6897438030   -0.1766066608    0.3162067817
H        1.4594952229   -1.3488376018    0.8204967987
H        0.9257344014    1.3310194397   -0.6219266756
C       -0.7966123858    0.1752076034    0.0497663368
H        0.7722296592   -0.2841920640   -1.3213948827
H       -1.0841391797    1.0210110125    0.6922163753
H       -0.9464490880   -0.7437295013    0.6235076731
O       -1.7176477297    0.0339960560   -1.0730683987
H       -1.6449671440    0.8128421707   -1.6621923138
12   
Dihedral (-150, -45) Energy -194.291988271
C        1.6469458835   -0.2871335427    0.6372032486
C        0.6552077566    0.3022394550   -0.3801212644
H        1.5677478058    0.2108297685    1.6119739826
H        2.6804893080   -0.1756700556    0.2918108867
H        1.4548099017   -1.3554735857    0.7903113530
H        0.9062303738    1.3498150669   -0.5977178883
C       -0.8090164971    0.1855429841    0.0735926638
H        0.7481323705   -0.2547284381   -1.3230976363
H       -1.0850725532    1.0296878017    0.7230579608
H       -0.9563641870   -0.7357260360    0.6444232718
O       -1.7461768818    0.0652811220   -1.0387308237
H       -1.5212563016    0.7172673532   -1.7336054012
12   
Dihedral (-150, -30) Energy -194.290955466
C        1.6419205479   -0.2931075318    0.6243291562
C        0.6438409826    0.3233475808   -0.3703525996
H        1.5760104842    0.1864675471    1.6090679294
H        2.6724732894   -0.1817731548    0.2701817496
H        1.4434590932   -1.3627366081    0.7585310239
H        0.8965731997    1.3739899654   -0.5677155972
C       -0.8172296695    0.2028518670    0.0933154264
H        0.7320079306   -0.2150187041   -1.3256805641
H       -1.0852734283    1.0427994603    0.7503175496
H       -0.9598076878   -0.7223023972    0.6605556842
O       -1.7683206501    0.1116568001   -1.0112045321
H       -1.4248571549    0.5952440615   -1.7890835265
12   
Dihedral (-150, -15) Energy -194.289943321
C        1.6340362892   -0.3013582641    0.6144193484
C        0.6363373720    0.3446801753   -0.3614951010
H        1.5778877945    0.1593001130    1.6086195259
H        2.6635426217   -0.1923066573    0.2566281470
H        1.4260232345   -1.3714355588    0.7287251684
H        0.8948954951    1.3968395162   -0.5388278500
C       -0.8237557234    0.2224920636    0.1061839295
H        0.7226301717   -0.1745784488   -1.3287236825
H       -1.0894605916    1.0569131810    0.7688622585
H       -0.9596645556   -0.7071487571    0.6705194047
O       -1.7857644049    0.1626452598   -0.9920348378
H       -1.3641697714    0.4462848474   -1.8268759318
12   
Dihedral (-150, 0) Energy -194.289443681
C        1.6269452438   -0.3098491242    0.6055728736
C        0.6356366203    0.3683457772   -0.3546192142
H        1.5704032784    0.1251446372    1.6112016262
H        2.6581427356   -0.1972649519    0.2538491918
H        1.4124486355   -1.3812861820    0.6919991526
H        0.9029662904    1.4215176531   -0.5088296311
C       -0.8253722546    0.2459509685    0.1121859752
H        0.7224186311   -0.1275178068   -1.3348598866
H       -1.0935625379    1.0735122094    0.7794953556
H       -0.9550375678   -0.6891348781    0.6728035200
O       -1.7939249729    0.2199077819   -0.9814653439
H       -1.3366471060    0.2862744156   -1.8421245997
12   
Dihedral (-150, 15) Energy -194.289666829
C        1.6219685343   -0.3185658042    0.5986053288
C        0.6404613742    0.3928869614   -0.3471324244
H        1.5657745702    0.0913922047    1.6147178402
H        2.6555164431   -0.2066454981    0.2536345382
H        1.3977302046   -1.3899644737    0.6580259813
H        0.9169747494    1.4467232330   -0.4761399428
C       -0.8234580839    0.2703156054    0.1126381553
H        0.7289043836   -0.0766209426   -1.3406894025
H       -1.0992609354    1.0896061070    0.7841361223
H       -0.9512040609   -0.6714948611    0.6662891320
O       -1.7899269203    0.2804767561   -0.9816247004
H       -1.3367287893    0.1263377660   -1.8333991199
12   
Dihedral (-150, 30) Energy -194.290412721
C        1.6207928197   -0.3249308533    0.5928399146
C        0.6539603050    0.4197359444   -0.3420391507
H        1.5657018623    0.0635611721    1.6174360698
H        2.6575279522   -0.2202212906    0.2551517422
H        1.3822210821   -1.3945022810    0.6288651909
H        0.9345769881    1.4759991455   -0.4357073090
C       -0.8169188795    0.2890904092    0.0950264370
H        0.7535646874   -0.0151310223   -1.3502244446
H       -1.1087901096    1.0961217308    0.7723206521
H       -0.9503261464   -0.6626253573    0.6331309444
O       -1.7657636644    0.3380268169   -1.0116006543
H       -1.3511536972   -0.0221488103   -1.8205612179
12   
Dihedral (-150, 45) Energy -194.291214459
C        1.6209245291   -0.3333658584    0.5895472737
C        0.6679740288    0.4395566818   -0.3365385510
H        1.5548281950    0.0272326999    1.6237673288
H        2.6622538892   -0.2237100572    0.2678404889
H        1.3791967138   -1.4030825423    0.5945106554
H        0.9551326779    1.4961072404   -0.4015136527
C       -0.8083385707    0.3096869968    0.0841460854
H        0.7711905079    0.0327681485   -1.3553203594
H       -1.1074158608    1.1113091052    0.7633123500
H       -0.9530673199   -0.6467764806    0.6125334764
O       -1.7415509091    0.3915881590   -1.0324237159
H       -1.4162801354   -0.1606910012   -1.7717195239
12   
Dihedral (-150, 60) Energy -194.291579745
C        1.6242257824   -0.3397033545    0.5902081545
C        0.6849445628    0.4558392478   -0.3308490763
H        1.5467793420   -0.0021575848    1.6315381075
H        2.6699146765   -0.2265402161    0.2840650197
H        1.3803869161   -1.4090139287    0.5690340985
H        0.9744889064    1.5130188223   -0.3673656387
C       -0.7974467804    0.3236277401    0.0681369803
H        0.7951088030    0.0749274191   -1.3578706872
H       -1.1028521379    1.1199052384    0.7504297149
H       -0.9567244440   -0.6371269393    0.5844203804
O       -1.7098306344    0.4336850858   -1.0633455420
H       -1.5136039422   -0.2742923588   -1.7099451461
12   
Dihedral (-150, 75) Energy -194.291294437
C        1.6282746043   -0.3429183735    0.5944714614
C        0.7027426788    0.4689627088   -0.3264876389
H        1.5363567034   -0.0242383435    1.6406954093
H        2.6784359203   -0.2251737316    0.3056424975
H        1.3852854679   -1.4119664713    0.5508623943
H        0.9921910836    1.5267392973   -0.3375470320
C       -0.7856897877    0.3326017330    0.0474728054
H        0.8226872339    0.1090555582   -1.3588315329
H       -1.0969281427    1.1226712645    0.7349372707
H       -0.9587768266   -0.6323757829    0.5500562358
O       -1.6735476310    0.4645894086   -1.1030353949
H       -1.6382435334   -0.3520468206   -1.6403648958
12   
Dihedral (-150, 90) Energy -194.290516336
C        1.6328202585   -0.3419692172    0.6018533903
C        0.7205803861    0.4789368813   -0.3246083788
H        1.5238660766   -0.0367088181    1.6505791970
H        2.6872668558   -0.2185034256    0.3314171857
H        1.3936423488   -1.4111445451    0.5409020064
H        1.0081461928    1.5372704070   -0.3172970306
C       -0.7730067396    0.3365459834    0.0228463318
H        0.8521699673    0.1319006709   -1.3589194402
H       -1.0924622267    1.1171813943    0.7186277483
H       -0.9553035120   -0.6345394404    0.5084493635
O       -1.6313838779    0.4828433837   -1.1509826144
H       -1.7758849031   -0.3884652490   -1.5689898645
12   
Dihedral (-150, 105) Energy -194.289685666
C        1.6368097972   -0.3363801246    0.6108773137
C        0.7362692120    0.4851910773   -0.3266292056
H        1.5085152509   -0.0392988356    1.6598603290
H        2.6949868979   -0.2048452914    0.3593465351
H        1.4053182744   -1.4065109126    0.5378806014
H        1.0197476268    1.5445401074   -0.3102020543
C       -0.7608287097    0.3345194165   -0.0050038745
H        0.8806195230    0.1417640591   -1.3595934978
H       -1.0915334527    1.1025232745    0.7014878979
H       -0.9459149716   -0.6448585321    0.4611383219
O       -1.5843789261    0.4861790512   -1.2055407137
H       -1.9146879375   -0.3830529208   -1.5021520231
12   