12   
Dihedral (-165, -165) Energy -193.680992330
C        1.1360047494    1.4612095164   -1.2459127074
C        0.6635948787    0.7563842840   -0.0089574738
H        1.4724228860    0.7532206820   -2.0111795015
H        1.9742251367    2.1293835626   -1.0295803617
H        0.3365908872    2.0659468422   -1.6854293647
H        1.4771692009    0.2017485635    0.4699203268
C       -0.4856082441   -0.1976066256   -0.2827529778
H        0.3071097157    1.4844380979    0.7279882749
H       -0.1187894311   -1.0921695412   -0.8070240419
H       -1.2247047347    0.2888104011   -0.9379649627
O       -1.0769913839   -0.5344570704    0.9741641298
H       -1.6422933926   -1.3122652472    0.8373405097
12   
Dihedral (-165, -150) Energy -193.680369750
C        1.1645921507    1.4478944721   -1.2421644271
C        0.6635938400    0.7563808216   -0.0089518581
H        1.4989079667    0.7312452021   -2.0003214486
H        2.0110533126    2.1028141426   -1.0175071662
H        0.3813238149    2.0641247539   -1.6946547884
H        1.4593059631    0.1854528840    0.4808475701
C       -0.5035268274   -0.1737198119   -0.2922171227
H        0.3155037747    1.4940455330    0.7226166996
H       -0.1500414043   -1.0743912129   -0.8136220101
H       -1.2274279209    0.3253876982   -0.9538199621
O       -1.1238746708   -0.5016151939    0.9548854711
H       -1.5068834602   -1.3895223610    0.8755341422
12   
Dihedral (-165, -135) Energy -193.679704230
C        1.1890179293    1.4374292586   -1.2377984187
C        0.6635935737    0.7563800171   -0.0089486195
H        1.5222005721    0.7141276372   -1.9901289560
H        2.0415481431    2.0817246080   -1.0054974624
H        0.4194821324    2.0626130819   -1.7015588856
H        1.4457319660    0.1733111244    0.4890690521
C       -0.5170927693   -0.1543917439   -0.3042407665
H        0.3205950993    1.4999580998    0.7187925454
H       -0.1777997865   -1.0559938884   -0.8318258971
H       -1.2278970486    0.3614035500   -0.9654134382
O       -1.1723270621   -0.4834188169    0.9266028611
H       -1.3579375023   -1.4346468757    0.9263208168
12   
Dihedral (-165, -120) Energy -193.679484310
C       -0.1301724249    1.9631015844   -0.4142712010
C        0.6635881348    0.7565346442   -0.0091274002
H       -0.2420303402    2.0277295979   -1.5021899235
H        0.3477511572    2.8883332464   -0.0804195358
H       -1.1354110801    1.9361832939    0.0181983742
H        1.6874273239    0.8056437101   -0.3968193268
C        0.0221146628   -0.5463489011   -0.4629440421
H        0.7480154678    0.7070090438    1.0819035468
H        0.1102728027   -0.6606681185   -1.5514340867
H       -1.0497791400   -0.5288411160   -0.2258044431
O        0.6104000520   -1.6538642825    0.2311314499
H        1.0066373454   -2.2467865984   -0.4245492622
12   
Dihedral (-165, -105) Energy -193.679917950
C       -0.1132469602    1.9737901579   -0.4151043422
C        0.6635883236    0.7565346675   -0.0091237343
H       -0.2215065605    2.0408458967   -1.5032088205
H        0.3752330684    2.8926401028   -0.0789055142
H       -1.1199188688    1.9588881021    0.0146983808
H        1.6883022571    0.7948352546   -0.3975857228
C        0.0023825202   -0.5381075419   -0.4628297264
H        0.7475229533    0.7050925376    1.0816583308
H        0.0689465660   -0.6501474592   -1.5533470236
H       -1.0633740208   -0.5087017648   -0.2066851015
O        0.5568393983   -1.6706044914    0.2170642399
H        1.1363094768   -2.1384873121   -0.4031952825
12   
Dihedral (-165, -90) Energy -193.680759960
C       -0.0972461700    1.9865422171   -0.4070976951
C        0.6635895178    0.7565333170   -0.0091171460
H       -0.2145086281    2.0546960797   -1.4942275485
H        0.4089773609    2.8976591970   -0.0762920648
H       -1.1000411967    1.9875951986    0.0316883026
H        1.6875958783    0.7863778654   -0.4022698767
C       -0.0161518360   -0.5265961412   -0.4719078289
H        0.7511833341    0.6963452029    1.0808225145
H        0.0386549249   -0.6263354294   -1.5651405332
H       -1.0775738242   -0.4903135522   -0.2044278266
O        0.5074147593   -1.6831217649    0.1874689988
H        1.2477830856   -2.0152486843   -0.3446150826
12   
Dihedral (-165, -75) Energy -193.681489630
C        1.0676859383   -0.0899964069   -1.1788380418
C        0.6653042752    0.7586536046   -0.0092004670
H        1.1740537423   -1.1427410050   -0.8952532155
H        2.0235731522    0.2324110787   -1.6008504430
H        0.3198426134   -0.0387920515   -1.9763739944
H        1.4468332819    0.7526853294    0.7616798425
C       -0.6554631501    0.3129955794    0.6083763697
H        0.5394137096    1.8017417742   -0.3184722117
H       -0.5402020731   -0.6571583868    1.1140300546
H       -1.4013213746    0.1801303607   -0.1812290310
O       -1.2150738404    1.2946827976    1.4827727746
H       -0.6978547406    1.2774116606    2.3050071172
12   
Dihedral (-165, -60) Energy -193.681655240
C        0.3600606680   -0.4544037687    0.8189332122
C        0.6652125913    0.7585738755   -0.0091091170
H        0.8671818515   -1.3446638420    0.4318443228
H       -0.7118416772   -0.6701595383    0.8363850581
H        0.6861047583   -0.3135167229    1.8540849023
H        0.2849424400    0.6341916538   -1.0317430570
C        2.1555137155    1.0742333061   -0.0613383377
H        0.1631216889    1.6386463681    0.4077186040
H        2.6891665445    0.3126837856   -0.6501452818
H        2.5734740082    1.0571317547    0.9493227693
O        2.4274714686    2.3898139439   -0.5464399913
H        2.0597377695    2.4440261337   -1.4448452974
12   
Dihedral (-165, -45) Energy -193.681104550
C        0.3250152857   -0.4227010171    0.8503960894
C        0.6652186592    0.7586725396   -0.0091015132
H        0.8275573720   -1.3308061656    0.5013635115
H       -0.7500246714   -0.6226974671    0.8506124409
H        0.6313440982   -0.2536417933    1.8872488141
H        0.2912469052    0.6124639506   -1.0309872135
C        2.1626434551    1.0377003655   -0.0592689583
H        0.1779838519    1.6603328834    0.3803709013
H        2.6738488798    0.2501738202   -0.6334645523
H        2.5801589650    1.0290983530    0.9519853458
O        2.4703269215    2.3324208940   -0.5793656283
H        1.9170657671    2.4621409525   -1.3679127362
12   
Dihedral (-165, -30) Energy -193.680050790
C        1.6428589500   -0.2324851328    0.5491981949
C        0.6652504072    0.7587512085   -0.0091355198
H        2.4131573542   -0.4926199207   -0.1843108750
H        1.1476411540   -1.1606080229    0.8476028243
H        2.1490477625    0.1721301519    1.4307026071
H        0.1091408040    0.3237961583   -0.8498318018
C        1.3314116620    2.0507936099   -0.4659563333
H       -0.0732907581    1.0232079600    0.7575869129
H        1.9177784231    1.8665997295   -1.3784350509
H        2.0242878135    2.4071651852    0.3029760028
O        0.4005254303    3.1154478174   -0.6759384734
H       -0.4406045367    2.7137431309   -0.9490395519
12   
Dihedral (-165, -15) Energy -193.679001540
C        1.6903704223   -0.2978824552    0.2789369370
C        0.6653296272    0.7586719594   -0.0091391093
H        2.3870060128   -0.4178924596   -0.5572198053
H        1.2243328705   -1.2704392483    0.4594691848
H        2.2782288249   -0.0409471957    1.1650425865
H        0.0304893258    0.4667363596   -0.8550776723
C        1.2865654415    2.1202460235   -0.2956668091
H        0.0047571084    0.8725580173    0.8602521269
H        1.7709351304    2.1100138858   -1.2819569726
H        2.0614299779    2.3371308160    0.4485780696
O        0.3423631156    3.1934795215   -0.2341930318
H       -0.5461218689    2.8039772851   -0.2556413106
12   
Dihedral (-165, 0) Energy -193.678505940
C        1.6859424978   -0.2846565097    0.3375362216
C        0.6653889963    0.7586052874   -0.0091316573
H        2.4035457137   -0.4276070835   -0.4769143971
H        1.2180114020   -1.2528358715    0.5357661246
H        2.2508366851    0.0012050541    1.2297179798
H        0.0565837294    0.4442346132   -0.8652404517
C        1.2892353445    2.1170586799   -0.3058791132
H       -0.0214804667    0.8848780331    0.8390006820
H        1.7916979677    2.0979792919   -1.2809248532
H        2.0514674891    2.3392608270    0.4524364360
O        0.3408599744    3.1886665022   -0.3020229095
H       -0.5302768471    2.8110111435   -0.1043397177
12   
Dihedral (-165, 15) Energy -193.678803570
C        1.6865592012   -0.2605595254    0.4020885248
C        0.6654819618    0.7585022695   -0.0091006487
H        2.4345684224   -0.4145259761   -0.3824661886
H        1.2250266377   -1.2299477961    0.6092015246
H        2.2160247750    0.0562996606    1.3055427855
H        0.0873125135    0.4137069513   -0.8739605872
C        1.2843858185    2.1164855945   -0.3208359496
H       -0.0515168885    0.8963282491    0.8127664156
H        1.8072971754    2.0908401449   -1.2828382994
H        2.0298936621    2.3531646691    0.4524886765
O        0.3269519237    3.1770851867   -0.3808158763
H       -0.4934563431    2.8541372867    0.0237691016
12   
Dihedral (-165, 30) Energy -193.679676300
C        1.6863789003   -0.2460323545    0.4366885908
C        0.6654923902    0.7584964196   -0.0090987228
H        2.4541457609   -0.4023663045   -0.3281945733
H        1.2295330055   -1.2175201536    0.6445701508
H        2.1921805552    0.0860162967    1.3483170608
H        0.1065810239    0.4020782741   -0.8811859740
C        1.2788145990    2.1192949475   -0.3223616490
H       -0.0706953589    0.8966425297    0.7960896791
H        1.8079120937    2.0967289750   -1.2797234784
H        2.0177214547    2.3650943193    0.4561149883
O        0.3126584223    3.1675442166   -0.4156226203
H       -0.4210366201    2.9355911695    0.1763047287
12   
Dihedral (-165, 45) Energy -193.680590830
C        1.6952512846   -0.2127620691    0.4876993183
C        0.6655980177    0.7584299504   -0.0090425607
H        2.4850546038   -0.3725014044   -0.2537949172
H        1.2536773446   -1.1882251119    0.7096444966
H        2.1721573797    0.1520735304    1.4026236476
H        0.1445913211    0.3745381339   -0.8925285581
C        1.2561759882    2.1287615429   -0.3271997680
H       -0.1024206505    0.8927791040    0.7661220435
H        1.8036327735    2.1086089485   -1.2733073693
H        1.9739835113    2.4038848158    0.4620562632
O        0.2669595337    3.1480479678   -0.4698786868
H       -0.3586228302    3.0396561754    0.2655256701
12   
Dihedral (-165, 60) Energy -193.681023090
C        1.7097151712   -0.1790689657    0.5212895133
C        0.6656650452    0.7583964078   -0.0090038204
H        2.5277007722   -0.3142794113   -0.1943318743
H        1.2935886965   -1.1683010718    0.7313485112
H        2.1461472579    0.2012356123    1.4502130856
H        0.1743822747    0.3525665177   -0.8993865639
C        1.2278031080    2.1397802354   -0.3329832984
H       -0.1235842430    0.8842182703    0.7450175629
H        1.7864470935    2.1218169618   -1.2723787619
H        1.9294488209    2.4451491861    0.4594384305
O        0.2124840693    3.1277849901   -0.5082526046
H       -0.2823935763    3.1730623082    0.3267764520
12   
Dihedral (-165, 75) Energy -193.680741900
C        1.7270476089   -0.1437811002    0.5476867347
C        0.6657483494    0.7583736448   -0.0089647047
H        2.5588999133   -0.2666204337   -0.1542022541
H        1.3347330663   -1.1411153300    0.7653464757
H        2.1400979875    0.2595543087    1.4778246912
H        0.2079295839    0.3340280710   -0.9084072686
C        1.1910393462    2.1548432971   -0.3307999321
H       -0.1442830500    0.8665336756    0.7241938246
H        1.7659078145    2.1452497667   -1.2609593717
H        1.8701686125    2.4901981728    0.4680034239
O        0.1425225876    3.1045313165   -0.5309328833
H       -0.2167633964    3.3182125274    0.3455800858
12   
Dihedral (-165, 90) Energy -193.679913160
C        1.2815299863   -0.3537154789    0.7862106141
C        0.6649417961    0.7586102194   -0.0091305938
H        2.0384055472    0.0210426088    1.4837755719
H        1.7700743940   -1.0884099987    0.1399857408
H        0.5259351521   -0.8830148267    1.3757451580
H        1.4023335147    1.2502178422   -0.6519570387
C       -0.0027134220    1.8104719043    0.8720324977
H       -0.1033146402    0.3526824572   -0.6788422785
H        0.7505904487    2.4563393686    1.3337007520
H       -0.5519392387    1.3194909008    1.6886714930
O       -0.8700711978    2.6683483750    0.1245066991
H       -1.7510096610    2.2626483770    0.1293633370
12   
Dihedral (-165, 105) Energy -193.679018560
C        1.2800130993   -0.3439462227    0.8008507528
C        0.6649406284    0.7586072835   -0.0091280518
H        2.0222824818    0.0408352295    1.5087319534
H        1.7859664488   -1.0763194653    0.1654976127
H        0.5206005247   -0.8786444387    1.3806388503
H        1.4085383007    1.2518859580   -0.6438036261
C       -0.0217782938    1.8089732739    0.8570898250
H       -0.0929747666    0.3473172147   -0.6858929730
H        0.7219407596    2.4545791202    1.3373489264
H       -0.5856418085    1.3142160921    1.6602940423
O       -0.8831436307    2.6471547433    0.0771539800
H       -1.7964679117    2.3794243208    0.2579219502
12   
Dihedral (-165, 120) Energy -193.678603190
C        1.2862857310   -0.3317414740    0.8125008073
C        0.6649387133    0.7586058877   -0.0091267299
H        2.0169191761    0.0655540381    1.5255630392
H        1.8075083146   -1.0602853386    0.1851584609
H        0.5281048335   -0.8736832557    1.3871172075
H        1.4095023309    1.2565334928   -0.6393288246
C       -0.0417307491    1.8033596423    0.8451614202
H       -0.0840536952    0.3378567181   -0.6889291761
H        0.6892072918    2.4508071394    1.3455454722
H       -0.6180753332    1.2981562113    1.6324864605
O       -0.9007647557    2.6150054964    0.0337326333
H       -1.8054756659    2.5141600684    0.3638818279
12   
Dihedral (-165, 135) Energy -193.678917860
C        1.2990795941   -0.3180043157    0.8208004212
C        0.6649374405    0.7586051331   -0.0091253787
H        2.0192098749    0.0937237072    1.5363061758
H        1.8354830262   -1.0400351560    0.1987831695
H        0.5464277037   -0.8702107357    1.3927745938
H        1.4061156343    1.2650361112   -0.6367558353
C       -0.0630082373    1.7934489388    0.8364361033
H       -0.0749298448    0.3250710651   -0.6901760355
H        0.6531728646    2.4466018428    1.3535426669
H       -0.6473255245    1.2749586517    1.6096315467
O       -0.9228810421    2.5744129740   -0.0024614165
H       -1.7792686839    2.6579928702    0.4427832990
12   
Dihedral (-165, 150) Energy -193.679763510
C        1.3176170268   -0.3033836297    0.8252599648
C        0.6649383380    0.7586037244   -0.0091236779
H        2.0273587857    0.1240818562    1.5418626220
H        1.8700138124   -1.0154911982    0.2058474831
H        0.5743893367   -0.8694505562    1.3958183078
H        1.3987682588    1.2787383871   -0.6341884504
C       -0.0863184593    1.7788244159    0.8311042738
H       -0.0640724347    0.3098008075   -0.6917346606
H        0.6148389415    2.4427566521    1.3572823845
H       -0.6715779429    1.2477535422    1.5960621453
O       -0.9507099849    2.5281156423   -0.0288183303
H       -1.7222535910    2.8020827346    0.4912396988
12   
Dihedral (-165, 165) Energy -193.680657940
C        1.0597669293    1.5126782557   -1.2424255409
C        0.6636283261    0.7564306118   -0.0090378720
H        1.4111845008    0.8417939510   -2.0338487553
H        1.8663795071    2.2212535287   -1.0345805410
H        0.2156156376    2.0821728067   -1.6439567888
H        1.5220615237    0.2419147954    0.4355382440
C       -0.4388963258   -0.2542108761   -0.2744273823
H        0.2851107290    1.4471747353    0.7518292969
H       -0.0479131388   -1.1165338207   -0.8348521322
H       -1.2168539290    0.2166669349   -0.8943936117
O       -0.9792143306   -0.6552921062    0.9867648338
H       -1.8232706838   -1.1042492294    0.8167751417
12   
Dihedral (-165, 180) Energy -193.681136480
C        1.1007215133    1.4815502310   -1.2471741604
C        0.6636039676    0.7564000744   -0.0089812543
H        1.4425345167    0.7878802075   -2.0230338776
H        1.9259238923    2.1678636845   -1.0376850122
H        0.2807021802    2.0705446601   -1.6698474529
H        1.4986229635    0.2216500056    0.4555353478
C       -0.4638197477   -0.2252024798   -0.2754680834
H        0.2962360895    1.4697208554    0.7366618034
H       -0.0851079843   -1.1072186982   -0.8132995340
H       -1.2214626322    0.2522867383   -0.9159752529
O       -1.0287013600   -0.5852031018    0.9865344485
H       -1.7503873507   -1.2134378673    0.8180213173
12   
Dihedral (-150, -165) Energy -193.679038780
C        0.2152616200   -0.1625156889    1.0886244194
C        0.6635647648    0.7563664451   -0.0089653270
H       -0.8606065020   -0.0769889243    1.2772671530
H        0.7282857875    0.0568384829    2.0293344119
H        0.4224302406   -1.2061238897    0.8330096849
H        0.5416789660    1.8071073016    0.2733858215
C       -0.0491874285    0.4926361399   -1.3294114842
H        1.7320555351    0.6088086150   -0.1998538873
H       -0.9837030498    1.0685532423   -1.3883928641
H       -0.3159036881   -0.5732376918   -1.4001840831
O        0.8494411412    0.8435143929   -2.3853682122
H        0.3329859094    0.9078832133   -3.2056148588
12   
Dihedral (-150, -150) Energy -193.678416210
C        0.2095856307   -0.1315615743    1.1114984605
C        0.6635718681    0.7563782859   -0.0089786307
H       -0.8653597917   -0.0336409003    1.2995371808
H        0.7256826649    0.1066595626    2.0459222620
H        0.4084936778   -1.1826023611    0.8809743511
H        0.5460200603    1.8151577462    0.2442900079
C       -0.0453471124    0.4603850833   -1.3253199068
H        1.7321498564    0.5997582087   -0.1925032465
H       -0.9795803356    1.0335102569   -1.3995122720
H       -0.3124698951   -0.6061189976   -1.3719158065
O        0.8500558677    0.7778245572   -2.3965784388
H        0.3193514989    1.0543001487   -3.1605315365
12   
Dihedral (-150, -135) Energy -193.677732640
C        0.2064508360   -0.1073968716    1.1289619028
C        0.6635768926    0.7563831979   -0.0089839415
H       -0.8676791660   -0.0002401765    1.3168182668
H        0.7253070479    0.1453434808    2.0580298739
H        0.3991191559   -1.1637012508    0.9178375568
H        0.5497731777    1.8206340277    0.2239267480
C       -0.0457033499    0.4351292307   -1.3205415244
H        1.7315821555    0.5929260158   -0.1892250552
H       -0.9852054012    0.9969100240   -1.4032896260
H       -0.3040529398   -0.6331251661   -1.3471253955
O        0.8352797747    0.7216483054   -2.4143775090
H        0.3339261783    1.2008018631   -3.0916141437
12   
Dihedral (-150, -120) Energy -193.677507870
C        0.2062279198   -0.0883229088    1.1431020625
C        0.6635799596    0.7563825552   -0.0089841800
H       -0.8669301753    0.0259497800    1.3323809791
H        0.7288016128    0.1756408318    2.0669478914
H        0.3938594596   -1.1484371563    0.9468248610
H        0.5537785205    1.8244957818    0.2102036538
C       -0.0505458982    0.4153573054   -1.3145668035
H        1.7302963555    0.5866485910   -0.1901121004
H       -0.9995054803    0.9599158964   -1.3998511178
H       -0.2925331421   -0.6555787512   -1.3252864669
O        0.8069713080    0.6726876197   -2.4347774247
H        0.3791084475    1.3321520234   -3.0011370338
12   
Dihedral (-150, -105) Energy -193.677951280
C        0.2115386689   -0.0733834100    1.1559837163
C        0.6635838683    0.7563808013   -0.0089847540
H       -0.8606150457    0.0440908435    1.3488775983
H        0.7387953709    0.2013278170    2.0740085105
H        0.3974130669   -1.1359661214    0.9716630097
H        0.5566843453    1.8271970821    0.2008731064
C       -0.0607000277    0.3991808296   -1.3062265177
H        1.7285410317    0.5820258858   -0.1955010538
H       -1.0199127634    0.9266698356   -1.3874475688
H       -0.2844182537   -0.6742910150   -1.3055044697
O        0.7673463484    0.6309568922   -2.4528206729
H        0.4553849591    1.4367347709   -2.8922770980
12   
Dihedral (-150, -90) Energy -193.678799250
C        0.2268695522   -0.0659872880    1.1677590325
C        0.6635917120    0.7563787393   -0.0089887034
H       -0.8406747523    0.0574321486    1.3797751612
H        0.7736716107    0.2103888661    2.0736756479
H        0.4055288536   -1.1301356342    0.9848585039
H        0.5555701002    1.8282356053    0.1969647814
C       -0.0734635645    0.3832285471   -1.2955712649
H        1.7275067200    0.5822564182   -0.2035716735
H       -1.0432658710    0.8936799163   -1.3675589679
H       -0.2756573252   -0.6931359304   -1.2875868103
O        0.7219726706    0.5995244115   -2.4663504715
H        0.5595415865    1.5063755495   -2.7718002131
12   
Dihedral (-150, -75) Energy -193.679500270
C       -0.3299433016    1.8620494021    0.1975174942
C        0.6651874091    0.7588484715   -0.0091853610
H       -1.1445289122    1.8164695886   -0.5336265561
H        0.1358777793    2.8472601330    0.1048684600
H       -0.7781834176    1.7986990545    1.1937131001
H        1.1742928512    0.8656505294   -0.9752110186
C        0.0387916627   -0.6317913704    0.1052625350
H        1.4410983980    0.8132362768    0.7621531007
H       -0.4224668769   -0.9398913922   -0.8439167738
H       -0.7553771417   -0.6089239188    0.8577978411
O        0.9558919747   -1.6176951590    0.5863700499
H        1.5611951051   -1.8314591493   -0.1431626103
12   
Dihedral (-150, -60) Energy -193.679610630
C       -0.2968897654    1.8849791136    0.2277111219
C        0.6652489570    0.7588146456   -0.0091198847
H       -1.1276525049    1.8646391040   -0.4860792048
H        0.1909197921    2.8591916844    0.1321562716
H       -0.7249936114    1.8242935713    1.2327638435
H        1.1658491879    0.8684432599   -0.9793286796
C        0.0024636338   -0.6163811949    0.0857180740
H        1.4499245240    0.7820403646    0.7555915452
H       -0.4675425002   -0.8904328955   -0.8704151914
H       -0.7881420009   -0.5926004977    0.8413359765
O        0.8938407851   -1.6374096671    0.5389111372
H        1.6252461596   -1.6833517185   -0.1001404083
12   
Dihedral (-150, -45) Energy -193.678976930
C        0.8790530634    2.1138901363   -0.6157240240
C        0.6652487131    0.7587668862   -0.0091401452
H        1.4644614683    2.7637356482    0.0435678010
H       -0.0694855813    2.6205595825   -0.8150198905
H        1.4192093499    2.0330238672   -1.5635723322
H        0.0444544160    0.8259250067    0.8928402778
C        1.9758362805    0.0389332526    0.3122132087
H        0.1220927266    0.1265741145   -0.7218281023
H        2.3538796894    0.3506693802    1.2972819118
H        2.7371017375    0.3040699314   -0.4274208398
O        1.8708645828   -1.3840171540    0.2292213913
H        1.0480258475   -1.6376883275    0.6802548394
12   
Dihedral (-150, -30) Energy -193.677825880
C       -0.3830594179    1.8053193244   -0.2455074003
C        0.6652477452    0.7587502900   -0.0091435372
H       -0.1766930104    2.7179575085    0.3235329234
H       -1.3759909311    1.4542100760    0.0493449909
H       -0.4258157830    2.0783474550   -1.3038220597
H        0.6481857294    0.4111704182    1.0307594333
C        2.0723513529    1.2327420295   -0.3758385283
H        0.4430550245   -0.1124942116   -0.6384707623
H        2.5254624554    1.7688799475    0.4706223797
H        2.0219348557    1.9331339814   -1.2157891523
O        2.9295419001    0.1743590211   -0.8138388109
H        2.6442042966   -0.6365962212   -0.3622106964
12   
Dihedral (-150, -15) Energy -193.676671840
C       -0.3931503154    1.7800803664   -0.3029804908
C        0.6653230875    0.7586651921   -0.0091693628
H       -0.2135075109    2.7131990846    0.2413279846
H       -1.3868676154    1.4224910714   -0.0188209862
H       -0.4158340377    2.0191439928   -1.3700096629
H        0.6289708879    0.4390259665    1.0386600581
C        2.0725720463    1.2447621895   -0.3601481964
H        0.4648645291   -0.1335385171   -0.6177600719
H        2.5026806746    1.8021016825    0.4830768738
H        2.0215814654    1.9322124137   -1.2125581632
O        2.9622057857    0.1921110591   -0.7455921814
H        2.5578714895   -0.6480567204   -0.4782722675
12   
Dihedral (-150, 0) Energy -193.676081640
C       -0.3946097193    1.7612437582   -0.3579977337
C        0.6652692598    0.7587184687   -0.0091648835
H       -0.2370748481    2.7098190824    0.1659502031
H       -1.3921297988    1.4020282302   -0.0897679364
H       -0.3919427158    1.9728407643   -1.4310887940
H        0.6102288167    0.4731128654    1.0470896597
C        2.0745730053    1.2477068959   -0.3505327110
H        0.4779844529   -0.1559023374   -0.5891645184
H        2.4946440974    1.8210459534    0.4845482058
H        2.0208002766    1.9226907069   -1.2150176647
O        2.9863204975    0.1962786324   -0.6849806984
H        2.5058260046   -0.6434241462   -0.6244257738
12   
Dihedral (-150, 15) Energy -193.676318780
C       -0.3897693253    1.7305016693   -0.4492211881
C        0.6650842249    0.7589014205   -0.0092358227
H       -0.2627370840    2.7049702638    0.0338809510
H       -1.3937615647    1.3730981382   -0.2036973832
H       -0.3462911157    1.8909979908   -1.5303672592
H        0.5757090122    0.5298754624    1.0581387843
C        2.0818085343    1.2433162765   -0.3295185419
H        0.5026269373   -0.1900725906   -0.5402052456
H        2.4806489236    1.8496788901    0.4903618151
H        2.0434527104    1.8858344661   -1.2214563390
O        3.0147141600    0.1870866250   -0.5744880020
H        2.5070666383   -0.6258677127   -0.7211759842
12   
Dihedral (-150, 30) Energy -193.677178610
C       -0.3796498397    1.7140295080   -0.5059976675
C        0.6650042809    0.7589873623   -0.0092743557
H       -0.2606115403    2.7069755291   -0.0598174144
H       -1.3888344848    1.3677210389   -0.2657847109
H       -0.3161676951    1.8322767459   -1.5917637216
H        0.5551534945    0.5662995747    1.0630620764
C        2.0894660086    1.2305481131   -0.3182449192
H        0.5129230804   -0.2098237869   -0.5064594256
H        2.4859017852    1.8519874320    0.4894816373
H        2.0651622262    1.8526409170   -1.2267656287
O        3.0226363011    0.1647033283   -0.5043410981
H        2.5297769030   -0.5898464283   -0.8641735493
12   
Dihedral (-150, 45) Energy -193.678116030
C       -0.3668277200    1.7018555767   -0.5539460722
C        0.6649582116    0.7590471664   -0.0093122364
H       -0.2527814785    2.7076093600   -0.1358631453
H       -1.3817001118    1.3662867020   -0.3224376123
H       -0.2839064501    1.7879632553   -1.6416530208
H        0.5403861732    0.6075520969    1.0679479097
C        2.0977927304    1.2091567255   -0.3137470344
H        0.5170196267   -0.2282968466   -0.4686184928
H        2.4940142554    1.8415228247    0.4846107268
H        2.0954950695    1.8115459245   -1.2363383429
O        3.0199748361    0.1272236989   -0.4469976147
H        2.5897738852   -0.5441415551   -1.0015520155
12   
Dihedral (-150, 60) Energy -193.678575850
C        1.4964847030   -0.3066635411    0.6409472899
C        0.6649600535    0.7590440892   -0.0093124833
H        1.4344670754   -0.2559821542    1.7332811151
H        2.5524527517   -0.2157522268    0.3708618856
H        1.1610376911   -1.3041916511    0.3404445403
H        1.0421323093    1.7600354877    0.2241668966
C       -0.8196431196    0.6629913522    0.3597256971
H        0.7430055208    0.6575823607   -1.0999440861
H       -1.0488136908    1.2674580990    1.2405767022
H       -1.0666167019   -0.3813697683    0.6084265903
O       -1.6883594065    1.1397279808   -0.6684162146
H       -1.5209583653    0.5918057485   -1.4530240930
12   
Dihedral (-150, 75) Energy -193.678298230
C        1.4441661677   -0.3530901207    0.6285393792
C        0.6649655435    0.7588233362   -0.0092145248
H        1.3422816146   -0.3434929873    1.7191654402
H        2.5116719202   -0.2806267601    0.4016391689
H        1.0956010421   -1.3292725987    0.2765971865
H        1.0643421787    1.7387667447    0.2718104281
C       -0.8321235135    0.6981102008    0.3147009330
H        0.7663727419    0.6948956964   -1.0997663927
H       -1.0644805079    1.2846447005    1.2072329831
H       -1.1228510672   -0.3422566267    0.5266200158
O       -1.6496009314    1.2369197798   -0.7266470112
H       -1.6634468883    0.5806942787   -1.4421921784
12   
Dihedral (-150, 90) Energy -193.677456500
C        1.3960527651   -0.3880072690    0.6240255020
C        0.6649279795    0.7586267000   -0.0091237820
H        1.2690279798   -0.3984530543    1.7120529492
H        2.4702845359   -0.3417460652    0.4233032260
H        1.0289947636   -1.3464133084    0.2428347825
H        1.0776605136    1.7202585141    0.3132601699
C       -0.8429564279    0.7286536354    0.2621308584
H        0.7971870437    0.7224831356   -1.0968070783
H       -1.0870853350    1.2942031775    1.1660983354
H       -1.1692197735   -0.3075382558    0.4334224254
O       -1.6003232162    1.3183042914   -0.7999050963
H       -1.8107407779    0.6112402500   -1.4294860915
12   
Dihedral (-150, 105) Energy -193.676557660
C        1.3840096148   -0.3901179263    0.6337739201
C        0.6649280593    0.7586233948   -0.0091244591
H        1.2308674340   -0.4091265149    1.7184432856
H        2.4626832969   -0.3393555239    0.4597147603
H        1.0293477654   -1.3466244248    0.2364563221
H        1.0733921173    1.7188725808    0.3227199677
C       -0.8460665433    0.7272573945    0.2375365392
H        0.8093128683    0.7237324653   -1.0945794495
H       -1.1031356177    1.2776905844    1.1487372918
H       -1.1722753330   -0.3113596313    0.3876917767
O       -1.5722249905    1.3235545765   -0.8452640176
H       -1.9756526550    0.6069807953   -1.3572694056
12   