12   
Dihedral (-165, -165) Energy -193.680992170
C        1.4833651073    0.2492077396    1.1410906120
C        0.6654135006    0.7589729007   -0.0082981995
H        1.2113813450    0.7419563837    2.0809444248
H        2.5509361146    0.4227717628    0.9797184164
H        1.3409932721   -0.8270128925    1.2802820245
H        0.8549386837    1.8214854837   -0.1928336688
C       -0.8249938846    0.5556496442    0.1992086005
H        0.9360682743    0.2300699615   -0.9287393203
H       -1.2033437600    1.2651420820    0.9495967468
H       -1.0121981258   -0.4597349366    0.5815032423
O       -1.4669084981    0.7399569858   -1.0645184238
H       -2.4180124445    0.8495024550   -0.9012653050
12   
Dihedral (-165, -150) Energy -193.680369780
C        1.4920808129    0.2772975456    1.1469550207
C        0.6654134990    0.7589729007   -0.0082981998
H        1.2178772956    0.7829095590    2.0793217189
H        2.5574389325    0.4585217643    0.9794197941
H        1.3608775362   -0.7978180871    1.3048051252
H        0.8369884551    1.8220105615   -0.2072052197
C       -0.8221790939    0.5340259630    0.2015099490
H        0.9450296311    0.2232129158   -0.9222219847
H       -1.2097530643    1.2442333120    0.9454345713
H       -0.9954531761   -0.4792516064    0.5940521749
O       -1.4780300256    0.6899420919   -1.0607241264
H       -2.3752492700    1.0196740673   -0.8944491349
12   
Dihedral (-165, -135) Energy -193.679703840
C        1.5012781662    0.3003965785    1.1497337549
C        0.6654134996    0.7589729015   -0.0082982007
H        1.2188530974    0.8080532327    2.0786395118
H        2.5633350863    0.4986166025    0.9804890395
H        1.3883608646   -0.7755596929    1.3158117211
H        0.8206089660    1.8232238466   -0.2159945467
C       -0.8189589961    0.5108934554    0.2057545868
H        0.9521494007    0.2209941271   -0.9185888308
H       -1.2164102212    1.2106410785    0.9532693493
H       -0.9735375654   -0.5049723402    0.5964933547
O       -1.4994405241    0.6412033650   -1.0481524086
H       -2.2987364582    1.1705070097   -0.9057556707
12   
Dihedral (-165, -120) Energy -193.679484030
C        1.5169920349    0.3364302735    1.1519913010
C        0.6654134994    0.7589729013   -0.0082981997
H        1.2844096243    0.9106469559    2.0555523848
H        2.5807596264    0.4774713991    0.9411997259
H        1.3645821645   -0.7217695208    1.3870558272
H        0.8537878772    1.8037775927   -0.2801093485
C       -0.8212646904    0.5751547108    0.2581019587
H        0.9068928897    0.1607130379   -0.8935586443
H       -1.1761501392    1.3142774495    0.9884480898
H       -0.9953579550   -0.4178830968    0.6928944063
O       -1.5560962290    0.6551255655   -0.9699413383
H       -2.1834432623    1.3900548754   -0.9007430490
12   
Dihedral (-165, -105) Energy -193.679917420
C        1.5297865776    0.3499798824    1.1473764484
C        0.6654134996    0.7589729029   -0.0082981990
H        1.2972283027    0.9249884068    2.0504099085
H        2.5905953322    0.5011717072    0.9288376960
H        1.3898801625   -0.7088903968    1.3872861770
H        0.8444424702    1.8051000777   -0.2838713026
C       -0.8183488541    0.5601683222    0.2710737431
H        0.9050450016    0.1601222030   -0.8934423065
H       -1.1768795264    1.2842542593    1.0149679110
H       -0.9762347186   -0.4395784064    0.6927975945
O       -1.5869109348    0.6228720716   -0.9362319127
H       -2.0446633711    1.4769518423   -0.9558664045
12   
Dihedral (-165, -90) Energy -193.680759320
C        1.5444958117    0.3566000865    1.1385716307
C        0.6654135000    0.7589729001   -0.0082981998
H        1.3135876475    0.9269530352    2.0449179760
H        2.6017366931    0.5193074778    0.9112476994
H        1.4174254913   -0.7042204815    1.3767919272
H        0.8365393557    1.8070970363   -0.2838368484
C       -0.8146070168    0.5487554757    0.2875221740
H        0.9001443104    0.1619877256   -0.8959344732
H       -1.1691460206    1.2616616196    1.0451274240
H       -0.9616028686   -0.4564794280    0.6966676633
O       -1.6142481300    0.6015286025   -0.8977894530
H       -1.8855283902    1.5240010631   -1.0286362060
12   
Dihedral (-165, -75) Energy -193.681488960
C        1.5614599518    0.3553946262    1.1249384614
C        0.6654134990    0.7589728970   -0.0082982010
H        1.3350839488    0.9160367080    2.0383570893
H        2.6144257037    0.5301571286    0.8870217553
H        1.4468095264   -0.7084755482    1.3551814834
H        0.8289914972    1.8103385286   -0.2781656585
C       -0.8100249158    0.5400318616    0.3053923010
H        0.8929712601    0.1683121101   -0.9021990154
H       -1.1549004180    1.2471680174    1.0741026139
H       -0.9516365036   -0.4685818218    0.7055799130
O       -1.6344465928    0.5924979589   -0.8608357154
H       -1.7134475011    1.5264438297   -1.1168212433
12   
Dihedral (-165, -60) Energy -193.681654560
C        1.5787924057    0.3461759212    1.1076487658
C        0.6654135005    0.7589729007   -0.0082981996
H        1.3598757986    0.8930567441    2.0310292725
H        2.6273244148    0.5315596913    0.8585540472
H        1.4739052955   -0.7213873935    1.3243399319
H        0.8221682127    1.8146929772   -0.2665144221
C       -0.8052528682    0.5338693118    0.3227183895
H        0.8848337673    0.1790715082   -0.9116469210
H       -1.1366967372    1.2392004646    1.0999173514
H       -0.9455790478   -0.4764266416    0.7177811208
O       -1.6487893181    0.5956518391   -0.8282324228
H       -1.5419083776    1.4822736315   -1.2126648381
12   
Dihedral (-165, -45) Energy -193.681102970
C        1.5939565537    0.3286520442    1.0883474883
C        0.6654135022    0.7589729017   -0.0082981991
H        1.3851013946    0.8591464559    2.0233897644
H        2.6386924706    0.5211001671    0.8290035005
H        1.4937479325   -0.7426532811    1.2872430884
H        0.8184191989    1.8189489475   -0.2510975636
C       -0.8009852075    0.5303222740    0.3377439279
H        0.8759218963    0.1919474753   -0.9225488735
H       -1.1184561471    1.2339862189    1.1224433737
H       -0.9401307869   -0.4815503638    0.7294527329
O       -1.6603284621    0.6104608956   -0.8007102599
H       -1.3884854730    1.3937103100   -1.3083248698
12   
Dihedral (-165, -30) Energy -193.680049620
C        1.6047274883    0.3037860998    1.0689641658
C        0.6654134993    0.7589728997   -0.0082982002
H        1.4065803740    0.8156599184    2.0164960883
H        2.6468465795    0.4999063264    0.8021228364
H        1.5039551547   -0.7710575646    1.2465194912
H        0.8187385735    1.8225777526   -0.2329823805
C       -0.7979614138    0.5296945212    0.3490496330
H        0.8676975793    0.2063468685   -0.9340138394
H       -1.1036229562    1.2303968415    1.1401924971
H       -0.9341962283   -0.4843700358    0.7382897383
O       -1.6713303419    0.6353558057   -0.7780378842
H       -1.2689609172    1.2666957749   -1.3968703914
12   
Dihedral (-165, -15) Energy -193.679001810
C        1.6096616547    0.2732748990    1.0511794417
C        0.6654135000    0.7589729000   -0.0082981998
H        1.4197968283    0.7641463406    2.0113699209
H        2.6508370390    0.4712552720    0.7821360729
H        1.5045277553   -0.8047840384    1.2043332997
H        0.8243987349    1.8249740364   -0.2140409344
C       -0.7965625956    0.5320905246    0.3563281965
H        0.8605706470    0.2213088725   -0.9452418877
H       -1.0952284613    1.2275548367    1.1529538182
H       -0.9278383573   -0.4853225372    0.7423662988
O       -1.6822728941    0.6679928389   -0.7590607729
H       -1.1922610448    1.1101777593   -1.4703589429
12   
Dihedral (-165, 0) Energy -193.678505270
C        1.6098380577    0.2386726066    1.0344624909
C        0.6654135000    0.7589729000   -0.0082981997
H        1.4313582742    0.7109463946    2.0060454082
H        2.6516452944    0.4305219285    0.7634603390
H        1.4927222448   -0.8410897697    1.1651386586
H        0.8329617735    1.8266437224   -0.1939713934
C       -0.7968372830    0.5346316851    0.3578565435
H        0.8557300413    0.2384930818   -0.9569071568
H       -1.0953791568    1.2218096881    1.1593104861
H       -0.9229923825   -0.4877297525    0.7376385730
O       -1.6899790110    0.7050297993   -0.7470829923
H       -1.1574973341    0.9356788470   -1.5241496275
12   
Dihedral (-165, 15) Energy -193.678803120
C        1.6065517011    0.2002376603    1.0174083247
C        0.6654135020    0.7589729002   -0.0082982016
H        1.4438507306    0.6562908259    1.9993930549
H        2.6500098241    0.3776879405    0.7428906643
H        1.4700582518   -0.8796037384    1.1279657331
H        0.8424726429    1.8283575761   -0.1697586930
C       -0.7986549363    0.5369632499    0.3540898931
H        0.8525842103    0.2608784929   -0.9703751883
H       -1.1017445183    1.2132443599    1.1607757929
H       -0.9237214959   -0.4915095005    0.7227149229
O       -1.6927191842    0.7467196305   -0.7422605685
H       -1.1623795492    0.7572666645   -1.5544562591
12   
Dihedral (-165, 30) Energy -193.679676590
C        1.5985590611    0.1674982585    1.0062938913
C        0.6654135003    0.7589728999   -0.0082982001
H        1.4360406587    0.6004038499    1.9988245671
H        2.6445165217    0.3432468998    0.7402571890
H        1.4535432660   -0.9137276654    1.0905695438
H        0.8516795060    1.8294989877   -0.1474993031
C       -0.8017653369    0.5413550165    0.3466962625
H        0.8517660946    0.2826625526   -0.9818039574
H       -1.1102508293    1.2109343024    1.1550489196
H       -0.9320369031   -0.4910057346    0.7069456911
O       -1.6905168739    0.7846046647   -0.7450789447
H       -1.2084380740    0.5729814281   -1.5607441489
12   
Dihedral (-165, 45) Energy -193.680590750
C        1.5903353942    0.1438189028    0.9997221548
C        0.6654135005    0.7589729018   -0.0082981983
H        1.4211262238    0.5540594395    2.0008663092
H        2.6386346418    0.3241782142    0.7460785958
H        1.4441382511   -0.9390588037    1.0590868905
H        0.8514960221    1.8321622257   -0.1225879123
C       -0.8051799291    0.5351749983    0.3307921010
H        0.8581181720    0.3074977737   -0.9920703593
H       -1.1247312537    1.1962794382    1.1407321803
H       -0.9407886884   -0.5011041854    0.6795801784
O       -1.6819624538    0.8045412644   -0.7630735961
H       -1.2889378643    0.3901434978   -1.5489805197
12   
Dihedral (-165, 60) Energy -193.681023120
C        1.5801504604    0.1214503387    0.9951066349
C        0.6654135006    0.7589729018   -0.0082981984
H        1.4021031341    0.5097441449    2.0035894220
H        2.6311989697    0.3057202548    0.7558697641
H        1.4329941557   -0.9625607507    1.0302057270
H        0.8514183113    1.8344004144   -0.0967193184
C       -0.8090516356    0.5309386363    0.3126714475
H        0.8641110481    0.3319981421   -1.0010200543
H       -1.1355476627    1.1835989612    1.1264526181
H       -0.9547826140   -0.5082588498    0.6478568945
O       -1.6709080558    0.8258689798   -0.7863880239
H       -1.4088319764    0.2381035194   -1.5143997663
12   
Dihedral (-165, 75) Energy -193.680741890
C        1.5694035068    0.1055550907    0.9946211484
C        0.6654135007    0.7589729017   -0.0082981985
H        1.3773765944    0.4731841850    2.0084172464
H        2.6229332604    0.2976730930    0.7729367401
H        1.4262321686   -0.9796616373    1.0070567946
H        0.8485352066    1.8364657302   -0.0733619539
C       -0.8124971538    0.5237606735    0.2914837070
H        0.8728345113    0.3531726012   -1.0071320436
H       -1.1460322324    1.1656550566    1.1115012118
H       -0.9660264733   -0.5184369155    0.6109785994
O       -1.6560963856    0.8387787346   -0.8177203687
H       -1.5559705081    0.1197371944   -1.4626181656
12   
Dihedral (-165, 90) Energy -193.679912230
C        1.5587511776    0.0963472508    0.9981187260
C        0.6654135008    0.7589729015   -0.0082981987
H        1.3496966724    0.4465516765    2.0148289113
H        2.6141740832    0.2987001386    0.7952166322
H        1.4232303108   -0.9900184106    0.9915658866
H        0.8439497820    1.8382333406   -0.0547161877
C       -0.8148978320    0.5140947150    0.2689268779
H        0.8833925608    0.3692441005   -1.0103021039
H       -1.1572403348    1.1410102862    1.0980718469
H       -0.9704995947   -0.5324141135    0.5693340296
O       -1.6359601407    0.8438044854   -0.8554809152
H       -1.7171118039    0.0436816998   -1.3975860774
12   
Dihedral (-165, 105) Energy -193.679018630
C        1.5487358133    0.0937563135    1.0052246516
C        0.6654135009    0.7589729014   -0.0082981989
H        1.3216516778    0.4313824556    2.0223845937
H        2.6052898821    0.3072440610    0.8203882237
H        1.4230997447   -0.9936774509    0.9851243368
H        0.8382253812    1.8397827824   -0.0418308692
C       -0.8158785875    0.5022740797    0.2464559489
H        0.8950176993    0.3796078108   -1.0107914551
H       -1.1702706585    1.1096716135    1.0867036887
H       -0.9662522968   -0.5504690014    0.5239540118
O       -1.6091099398    0.8414601381   -0.8974324238
H       -1.8786160882    0.0146044307   -1.3242186472
12   
Dihedral (-165, 120) Energy -193.678603430
C        1.5406680854    0.0976987145    1.0147589098
C        0.6654135009    0.7589729013   -0.0082981991
H        1.2961241111    0.4276863720    2.0303783936
H        2.5973494321    0.3231493463    0.8455834927
H        1.4268483658   -0.9908496968    0.9869899916
H        0.8304873005    1.8413698185   -0.0344722195
C       -0.8151685782    0.4876477204    0.2258300415
H        0.9073706421    0.3850978242   -1.0092205648
H       -1.1846390301    1.0737074180    1.0766049393
H       -0.9537755814   -0.5724399751    0.4794725412
O       -1.5770482775    0.8307094201   -0.9390387727
H       -2.0302196299    0.0315875830   -1.2450674258
12   
Dihedral (-165, 135) Energy -193.678918170
C        1.5347011607    0.1077135100    1.0262065891
C        0.6654135009    0.7589729012   -0.0082981993
H        1.2726514623    0.4336754713    2.0387220286
H        2.5904479812    0.3469855490    0.8708866341
H        1.4353135117   -0.9821016641    0.9956242506
H        0.8190872824    1.8432405442   -0.0311314069
C       -0.8129927088    0.4693766396    0.2063869419
H        0.9219872842    0.3877748407   -1.0060943112
H       -1.1999445394    1.0373748700    1.0634366155
H       -0.9370889149   -0.5973337648    0.4406159913
O       -1.5425089611    0.8105301957   -0.9786916157
H       -2.1634347370    0.0906181217   -1.1651330613
12   
Dihedral (-165, 150) Energy -193.679763920
C        1.5304005408    0.1240471653    1.0398748432
C        0.6654134992    0.7589728994   -0.0082982005
H        1.2527133088    0.4525751619    2.0473226540
H        2.5846778184    0.3757936429    0.8948197862
H        1.4451059730   -0.9670109612    1.0142185494
H        0.8042614427    1.8451783780   -0.0327684751
C       -0.8098465617    0.4492323134    0.1889780519
H        0.9384356340    0.3870706467   -1.0012778033
H       -1.2144326308    1.0085996375    1.0449625889
H       -0.9213503450   -0.6214218124    0.4148388879
O       -1.5092406760    0.7814631061   -1.0145819762
H       -2.2730550652    0.1881320164   -1.0877325513
12   
Dihedral (-165, 165) Energy -193.680657300
C        1.4712450734    0.1996183914    1.1264960432
C        0.6654135024    0.7589729010   -0.0082981974
H        1.2290638216    0.6902360680    2.0754806951
H        2.5437213147    0.3300789787    0.9571806602
H        1.2849590598   -0.8716318964    1.2524641826
H        0.9004908763    1.8146697436   -0.1803652896
C       -0.8304862338    0.6125635115    0.2119796076
H        0.9031428093    0.2304816285   -0.9374918252
H       -1.1804414605    1.3189028142    0.9795440383
H       -1.0423620435   -0.4036013917    0.5778590069
O       -1.4825956094    0.8397087064   -1.0396445165
H       -2.3948938449    0.5167467982   -0.9599487572
12   
Dihedral (-165, 180) Energy -193.681136110
C        1.4761496738    0.2237143288    1.1345951215
C        0.6654135010    0.7589729005   -0.0082981999
H        1.2189064146    0.7161006217    2.0787110020
H        2.5466284350    0.3746995497    0.9698686834
H        1.3107620605   -0.8500898790    1.2672397309
H        0.8779947888    1.8183111359   -0.1860766449
C       -0.8279275554    0.5839593817    0.2036425883
H        0.9205071906    0.2299427710   -0.9328853338
H       -1.1932766991    1.2921301600    0.9623433334
H       -1.0282078430   -0.4324472542    0.5766149637
O       -1.4686258488    0.7910597427   -1.0564691543
H       -2.4244497914    0.6794610205   -0.9228258501
12   
Dihedral (-150, -165) Energy -193.679038400
C        1.4862761659    0.1403014585    1.0841440772
C        0.6654134992    0.7589729001   -0.0082981999
H        1.2448429306    0.5643093284    2.0651166464
H        2.5560895024    0.2953778317    0.9177620281
H        1.3120112834   -0.9385299178    1.1401336999
H        0.8939060336    1.8229262134   -0.1281655305
C       -0.8324603421    0.5743968813    0.1994140349
H        0.9051893237    0.2811123559   -0.9644384165
H       -1.2438555589    1.3905279157    0.8102626074
H       -1.0184361635   -0.3662066543    0.7406544441
O       -1.4463303533    0.5257851390   -1.0915350081
H       -2.4022210603    0.6494084926   -0.9703804780
12   
Dihedral (-150, -150) Energy -193.678416120
C        1.4998530686    0.1650247134    1.0875741262
C        0.6654134990    0.7589729007   -0.0082981998
H        1.2545340173    0.5943818639    2.0652767584
H        2.5665293960    0.3357643230    0.9163678920
H        1.3432226500   -0.9158904547    1.1546238263
H        0.8737476846    1.8260715920   -0.1384252726
C       -0.8293124635    0.5488850672    0.2030731629
H        0.9126457922    0.2779368857   -0.9609293554
H       -1.2521986920    1.3600941273    0.8112459986
H       -0.9989222447   -0.3909692792    0.7497410382
O       -1.4567793272    0.4763457610   -1.0819340764
H       -2.3618685782    0.8153148385   -0.9946454638
12   
Dihedral (-150, -135) Energy -193.677732020
C        1.5128989205    0.1871800794    1.0893453798
C        0.6654134996    0.7589729006   -0.0082981998
H        1.2679720072    0.6234667394    2.0641334477
H        2.5765636700    0.3685323338    0.9105135778
H        1.3692400299   -0.8947532731    1.1683754834
H        0.8583042463    1.8277679207   -0.1503187124
C       -0.8260220799    0.5269238050    0.2105263304
H        0.9157566500    0.2720197356   -0.9570961342
H       -1.2593825626    1.3271562589    0.8245097931
H       -0.9753754632   -0.4161057295    0.7554998192
O       -1.4780978747    0.4306509511   -1.0623327011
H       -2.2871291080    0.9636430552   -1.0309175304
12   
Dihedral (-150, -120) Energy -193.677507060
C        1.5252228487    0.2059096856    1.0893579213
C        0.6654135005    0.7589728999   -0.0082981987
H        1.2828557041    0.6502424079    2.0611530912
H        2.5861456164    0.3943082169    0.9017412981
H        1.3912342274   -0.8763496620    1.1805987112
H        0.8478287841    1.8292079292   -0.1577484355
C       -0.8233181612    0.5105139653    0.2214177217
H        0.9150739360    0.2683710180   -0.9551432378
H       -1.2630845305    1.2965427568    0.8483380277
H       -0.9529296011   -0.4386706181    0.7579258448
O       -1.5089734235    0.3916202920   -1.0324238825
H       -2.1829012096    1.0861309929   -1.0785177776
12   
Dihedral (-150, -105) Energy -193.677950740
C        1.5362763641    0.2253462591    1.0902647147
C        0.6654134997    0.7589729026   -0.0082981991
H        1.3127219247    0.6971376019    2.0535622039
H        2.5962294493    0.3973155695    0.8824805955
H        1.3923686795   -0.8527162058    1.2114702256
H        0.8640089647    1.8215813591   -0.1915396582
C       -0.8233690441    0.5400735110    0.2574704658
H        0.8890382431    0.2361573264   -0.9442233819
H       -1.2396715489    1.3387855903    0.8849023952
H       -0.9531216882   -0.3997973862    0.8071713930
O       -1.5596258364    0.3907480896   -0.9630570353
H       -2.0499412625    1.2118030739   -1.1216707983
12   
Dihedral (-150, -90) Energy -193.678794630
C        1.5512233323    0.2314719447    1.0812354997
C        0.6654135000    0.7589729000   -0.0082981998
H        1.3329251243    0.7011510012    2.0467286094
H        2.6078461153    0.4115116580    0.8636221289
H        1.4163653951   -0.8476594294    1.2029560294
H        0.8581438618    1.8227809543   -0.1934066734
C       -0.8197303874    0.5326290383    0.2764553223
H        0.8811965881    0.2354093508   -0.9457231728
H       -1.2304025103    1.3237337542    0.9184154938
H       -0.9388571504   -0.4130315363    0.8160278057
O       -1.5878649415    0.3747588048   -0.9210932382
H       -1.8910591052    1.2547061400   -1.1963600549
12   
Dihedral (-150, -75) Energy -193.679499160
C        1.5678339881    0.2297756087    1.0666843524
C        0.6654134989    0.7589728969   -0.0082982011
H        1.3581592541    0.6925110205    2.0373427480
H        2.6206592269    0.4173758557    0.8373950097
H        1.4403620102   -0.8507322617    1.1830566406
H        0.8530477024    1.8245816459   -0.1899215114
C       -0.8153582808    0.5280182782    0.2965252067
H        0.8714753390    0.2391813307   -0.9503302064
H       -1.2151294974    1.3168771170    0.9495766708
H       -0.9299378523   -0.4210444887    0.8292411750
O       -1.6088119599    0.3713353240   -0.8826930630
H       -1.7163594283    1.2518228922   -1.2795591893
12   
Dihedral (-150, -60) Energy -193.679609580
C        1.5840692929    0.2201767470    1.0480020604
C        0.6654135004    0.7589729005   -0.0082981997
H        1.3855724435    0.6715826736    2.0261903198
H        2.6331120896    0.4137450865    0.8067124374
H        1.4609427612   -0.8618168534    1.1534646012
H        0.8491399506    1.8268791333   -0.1806489365
C       -0.8109780018    0.5258347328    0.3155147574
H        0.8615904021    0.2476503147   -0.9576007789
H       -1.1965764854    1.3161433278    0.9764197818
H       -0.9253621450   -0.4245574986    0.8449328122
O       -1.6241328817    0.3797674646   -0.8506490167
H       -1.5399815306    1.2016791478   -1.3633411970
12   
Dihedral (-150, -45) Energy -193.678977600
C        1.5971011816    0.2024269443    1.0271797902
C        0.6654135018    0.7589729014   -0.0082981994
H        1.4113742646    0.6393361827    2.0142796495
H        2.6431224722    0.3986681301    0.7752631997
H        1.4733827635   -0.8807356094    1.1173245738
H        0.8485205482    1.8288383386   -0.1673364913
C       -0.8072831475    0.5257238370    0.3313427483
H        0.8525483830    0.2591393446   -0.9662907927
H       -1.1783715250    1.3172141393    0.9993512425
H       -0.9213944334   -0.4258046449    0.8590140872
O       -1.6374343441    0.3989986297   -0.8254870788
H       -1.3810221957    1.1065711062   -1.4407616846
12   
Dihedral (-150, -30) Energy -193.677824940
C        1.6047758274    0.1775205500    1.0063502998
C        0.6654134990    0.7589728995   -0.0082982002
H        1.4320929231    0.5979290626    2.0028117831
H        2.6490299767    0.3724398407    0.7463597736
H        1.4749726985   -0.9061668491    1.0781638728
H        0.8517311427    1.8302546712   -0.1501154524
C       -0.8050616345    0.5272076422    0.3421601603
H        0.8464955549    0.2741556575   -0.9760628320
H       -1.1640102390    1.3177799738    1.0168937777
H       -0.9166646896   -0.4262258743    0.8686075369
O       -1.6512905015    0.4268385108   -0.8068868129
H       -1.2566031732    0.9726578125   -1.5063941824
12   
Dihedral (-150, -15) Energy -193.676670740
C        1.6067367026    0.1474473394    0.9866626626
C        0.6654134999    0.7589728999   -0.0082981999
H        1.4466772746    0.5504660335    1.9922540998
H        2.6507493790    0.3365836633    0.7214862418
H        1.4655901461   -0.9358828678    1.0386891075
H        0.8589665363    1.8307940349   -0.1305619011
C       -0.8045917936    0.5296324559    0.3471448803
H        0.8434131054    0.2922993263   -0.9865755078
H       -1.1575139404    1.3158518387    1.0281129742
H       -0.9109682104   -0.4273764874    0.8709530286
O       -1.6648111333    0.4607076893   -0.7947907240
H       -1.1740236225    0.8102365307   -1.5549274824
12   
Dihedral (-150, 0) Energy -193.676081140
C        1.6025694345    0.1148106147    0.9698601194
C        0.6654134989    0.7589729000   -0.0082982003
H        1.4449724311    0.4935194757    1.9851783966
H        2.6478928903    0.3036547328    0.7097187163
H        1.4539306062   -0.9684901256    0.9951606434
H        0.8700674125    1.8304847902   -0.1094983411
C       -0.8056229184    0.5347306512    0.3487116653
H        0.8416955920    0.3133485762   -0.9974175756
H       -1.1566381027    1.3156283386    1.0340469590
H       -0.9069238487   -0.4262578638    0.8702007104
O       -1.6769419113    0.4990163647   -0.7863482048
H       -1.1359552234    0.6292588288   -1.5801063364
12   
Dihedral (-150, 15) Energy -193.676318130
C        1.5958268901    0.0823494142    0.9542565160
C        0.6654135003    0.7589729001   -0.0082982001
H        1.4413447872    0.4381168910    1.9783098424
H        2.6430867215    0.2674471110    0.6992170916
H        1.4371776448   -0.9999125593    0.9543500275
H        0.8802498519    1.8301035404   -0.0864743504
C       -0.8081915491    0.5392138404    0.3441110875
H        0.8411102919    0.3378204839   -1.0086858224
H       -1.1633343025    1.3133589344    1.0322687539
H       -0.9089653467   -0.4269027293    0.8600930458
O       -1.6816400389    0.5384425118   -0.7885598457
H       -1.1336218096    0.4420469422   -1.5825749593
12   
Dihedral (-150, 30) Energy -193.677178200
C        1.5872498941    0.0520100680    0.9406070750
C        0.6654135009    0.7589728996   -0.0082982002
H        1.4343012635    0.3859964433    1.9722489496
H        2.6369026058    0.2323288127    0.6919956519
H        1.4186901983   -1.0286687761    0.9169939727
H        0.8880430432    1.8298841971   -0.0609068610
C       -0.8118901514    0.5424604385    0.3339062763
H        0.8410760118    0.3649320459   -1.0196495570
H       -1.1740856473    1.3097461952    1.0239204188
H       -0.9187409915   -0.4291667715    0.8411864707
O       -1.6784083940    0.5763739470   -0.8016362287
H       -1.1678944490    0.2588007292   -1.5633318990
12   
Dihedral (-150, 45) Energy -193.678115950
C        1.5777556759    0.0260583348    0.9300343660
C        0.6654135021    0.7589728987   -0.0082982006
H        1.4223997548    0.3389299802    1.9679830917
H        2.6299805427    0.2039312060    0.6905293318
H        1.4028375300   -1.0531277800    0.8836201229
H        0.8920993215    1.8299364715   -0.0335163534
C       -0.8162422005    0.5437498385    0.3182911196
H        0.8423012544    0.3924446481   -1.0290946168
H       -1.1857818811    1.3054430289    1.0093101789
H       -0.9351317349   -0.4325662514    0.8150601123
O       -1.6685149821    0.6095035666   -0.8253759372
H       -1.2414555436    0.0899674112   -1.5260999511
12   
Dihedral (-150, 60) Energy -193.678574560
C        1.5672918917    0.0055196400    0.9238624936
C        0.6654135013    0.7589728982   -0.0082982008
H        1.4046470940    0.2986062426    1.9665856790
H        2.6222603222    0.1837973852    0.6969019568
H        1.3899799029   -1.0723717922    0.8558516649
H        0.8928089122    1.8300010845   -0.0069907305
C       -0.8207215754    0.5420369226    0.2979858563
H        0.8462122203    0.4168933399   -1.0359518640
H       -1.1968361463    1.2979618744    0.9914773269
H       -0.9538764534   -0.4385181040    0.7820752566
O       -1.6541702100    0.6346745485   -0.8577289124
H       -1.3543129458   -0.0530399912   -1.4750181026
12   
Dihedral (-150, 75) Energy -193.678297710
C        1.5564115065   -0.0086503152    0.9227641785
C        0.6654134999    0.7589729002   -0.0082982001
H        1.3818774309    0.2673824873    1.9683406082
H        2.6140557673    0.1729777362    0.7112698253
H        1.3808762010   -1.0856517488    0.8356445232
H        0.8902528438    1.8302375621    0.0164788579
C       -0.8247127331    0.5370705759    0.2745659672
H        0.8538961519    0.4365611837   -1.0399176664
H       -1.2070945112    1.2855701284    0.9732661344
H       -0.9695550455   -0.4478357512    0.7443927542
O       -1.6363544644    0.6500338789   -0.8965782060
H       -1.4991075656   -0.1600112762   -1.4141353796
12   
Dihedral (-150, 90) Energy -193.677456000
C        1.5456846772   -0.0161670791    0.9267315692
C        0.6654135001    0.7589728989   -0.0082982009
H        1.3559050070    0.2467016295    1.9731686160
H        2.6056391306    0.1712957781    0.7324527116
H        1.3755501090   -1.0927752058    0.8242764519
H        0.8859001146    1.8306302182    0.0336443963
C       -0.8274939761    0.5293058454    0.2504410934
H        0.8641481800    0.4490509155   -1.0409231510
H       -1.2180363134    1.2663888704    0.9580635177
H       -0.9775032614   -0.4617521304    0.7029756890
O       -1.6136708741    0.6555281713   -0.9392638565
H       -1.6613893516   -0.2234566549   -1.3463507142
12   
Dihedral (-150, 105) Energy -193.676557520
C        1.5359557394   -0.0168762401    0.9352134957
C        0.6654135002    0.7589729013   -0.0082981990
H        1.3285083256    0.2362845131    1.9807801013
H        2.5974814085    0.1793044327    0.7588770445
H        1.3750865722   -1.0937555402    0.8212303495
H        0.8802267149    1.8314673290    0.0422564395
C       -0.8284659517    0.5192493830    0.2277199570
H        0.8755157415    0.4531763352   -1.0391582586
H       -1.2296561024    1.2407531064    0.9473036688
H       -0.9759687072   -0.4803110678    0.6599834861
O       -1.5843633049    0.6516902594   -0.9832624004
H       -1.8263067967   -0.2393010053   -1.2764308236
12   