12   
Dihedral (-165, -165) Energy -194.293011310
C        1.5098449522    0.2633856919    1.1280683008
C        0.6654134999    0.7589729022   -0.0082982002
H        1.2131919328    0.7094312746    2.0874447922
H        2.5683930957    0.5040176755    0.9762914257
H        1.4360466255   -0.8262156966    1.2401495813
H        0.7884584032    1.8398457911   -0.1549582472
C       -0.8203041382    0.4524551730    0.1722104953
H        0.9756898866    0.2856382009   -0.9493642786
H       -1.2589482980    1.1079520300    0.9402410345
H       -0.9507313735   -0.5893114219    0.5061330104
O       -1.4655851917    0.6481210113   -1.1207256967
H       -2.4359949256    0.6981148439   -1.0152074613
12   
Dihedral (-165, -150) Energy -194.292480225
C        1.5156144737    0.2912562919    1.1355547086
C        0.6654134990    0.7589729006   -0.0082981998
H        1.2160573671    0.7511437049    2.0874484839
H        2.5719553658    0.5380478078    0.9782916667
H        1.4513473863   -0.7968842191    1.2666662828
H        0.7723030790    1.8396149700   -0.1696680288
C       -0.8164665326    0.4321000311    0.1733315610
H        0.9846793741    0.2781695451   -0.9426798683
H       -1.2643152434    1.0871046235    0.9357874848
H       -0.9337713025   -0.6076313837    0.5152822665
O       -1.4733670424    0.5983011099   -1.1197089733
H       -2.4044923763    0.8686387110   -1.0027795145
12   
Dihedral (-165, -135) Energy -194.291917174
C        1.5234494280    0.3151447841    1.1392169139
C        0.6654134996    0.7589729020   -0.0082981991
H        1.2168745711    0.7787944247    2.0871507704
H        2.5758218558    0.5769470515    0.9796580126
H        1.4758936305   -0.7725903631    1.2802091491
H        0.7570168580    1.8400757919   -0.1791406977
C       -0.8120139880    0.4105215586    0.1779756110
H        0.9911137995    0.2751382255   -0.9387209398
H       -1.2678365423    1.0548469759    0.9438805506
H       -0.9115556940   -0.6306837543    0.5171067492
O       -1.4926225893    0.5484299689   -1.1079556277
H       -2.3392582473    1.0226456394   -1.0057486750
12   
Dihedral (-165, -120) Energy -194.291753687
C        1.5231054861    0.3757745021    1.1611133796
C        0.6654134998    0.7589729005   -0.0082981998
H        1.2736394823    0.9520167677    2.0628845847
H        2.5859689498    0.5466917188    0.9547283834
H        1.4069451125   -0.6865115322    1.4131435555
H        0.8218067036    1.8100153714   -0.2879895762
C       -0.8266442241    0.5240903693    0.2406783307
H        0.9362139718    0.1651164962   -0.8913603069
H       -1.2233009210    1.2536028307    0.9614056973
H       -0.9779854713   -0.4769203225    0.6657293552
O       -1.5550903470    0.5734799127   -1.0260174726
H       -2.2260195735    1.2816177897   -1.0156682189
12   
Dihedral (-165, -105) Energy -194.292163662
C        1.5355640646    0.3911436938    1.1568368429
C        0.6654134994    0.7589729030   -0.0082981990
H        1.2846456526    0.9681684856    2.0576329789
H        2.5949499193    0.5739770397    0.9429196079
H        1.4338124679   -0.6713778971    1.4140568554
H        0.8119592240    1.8113186255   -0.2916543359
C       -0.8235319728    0.5096781032    0.2541270961
H        0.9351454703    0.1644823512   -0.8909705071
H       -1.2223317518    1.2260561022    0.9869300361
H       -0.9593900130   -0.4964477145    0.6683283156
O       -1.5866461424    0.5389757014   -0.9918362201
H       -2.0935255122    1.3697875994   -1.0674000563
12   
Dihedral (-165, -90) Energy -194.292919736
C        1.5507985731    0.4002592034    1.1481695931
C        0.6654135000    0.7589729010   -0.0082981995
H        1.3001675042    0.9722692134    2.0521601226
H        2.6058582978    0.5969521812    0.9254756773
H        1.4645071756   -0.6639185837    1.4038253038
H        0.8022991243    1.8130489854   -0.2926153725
C       -0.8194811496    0.4971934687    0.2715329894
H        0.9313749213    0.1655182242   -0.8928236024
H       -1.2139586341    1.2039726461    1.0167072099
H       -0.9438612539   -0.5130135710    0.6758449259
O       -1.6157329972    0.5132895734   -0.9517221240
H       -1.9406296464    1.4167780029   -1.1343342525
12   
Dihedral (-165, -75) Energy -194.293567553
C        1.5687018846    0.4021642821    1.1348368301
C        0.6654134998    0.7589729018   -0.0082981997
H        1.3207070526    0.9639894405    2.0458310674
H        2.6184863828    0.6143918239    0.9018162617
H        1.4985409276   -0.6648539264    1.3826148092
H        0.7924288833    1.8164826760   -0.2869380485
C       -0.8147132370    0.4874044641    0.2901670957
H        0.9256703352    0.1720714169   -0.8990575600
H       -1.2000366284    1.1899102297    1.0450091867
H       -0.9330067169   -0.5249763541    0.6882428660
O       -1.6383636865    0.4996555426   -0.9128759535
H       -1.7733547647    1.4199777687   -1.2164546655
12   
Dihedral (-165, -60) Energy -194.293707053
C        1.5866414787    0.3976953110    1.1190072181
C        0.6654134999    0.7589729021   -0.0082981994
H        1.3583924104    0.9630732683    2.0327847986
H        2.6334677867    0.6022147927    0.8667625409
H        1.5130223716   -0.6682439800    1.3696213668
H        0.7996086455    1.8141752690   -0.2936436170
C       -0.8124772006    0.5085228143    0.3193512773
H        0.9044255853    0.1638568926   -0.9001289072
H       -1.1707301415    1.2273743838    1.0727297444
H       -0.9423443575   -0.4968244254    0.7300710979
O       -1.6632014084    0.5231583449   -0.8636936247
H       -1.6007411146    1.3948277626   -1.3051948139
12   
Dihedral (-165, -45) Energy -194.293206314
C        1.6015645610    0.3780597001    1.1000908630
C        0.6654134999    0.7589729021   -0.0082981994
H        1.3867039064    0.9299241462    2.0251108555
H        2.6451082752    0.5845794418    0.8363505110
H        1.5286363372   -0.6913590646    1.3348164610
H        0.8004325173    1.8174011032   -0.2811221044
C       -0.8092515086    0.5131726784    0.3368174444
H        0.8918396842    0.1730728109   -0.9103031260
H       -1.1503971572    1.2342181039    1.0958305387
H       -0.9423454294   -0.4919528539    0.7473263027
O       -1.6787675621    0.5478097206   -0.8324291232
H       -1.4473047458    1.3158739510   -1.3936304851
12   
Dihedral (-165, -30) Energy -194.292266846
C        1.6123161981    0.3463792281    1.0794249702
C        0.6654134998    0.7589729008   -0.0082981994
H        1.4181016902    0.8854164016    2.0162539456
H        2.6544812346    0.5434951376    0.8034908898
H        1.5278994128   -0.7257539267    1.2968255593
H        0.8074073110    1.8203414789   -0.2637841540
C       -0.8074000696    0.5215623306    0.3502015705
H        0.8779107318    0.1853670120   -0.9227042360
H       -1.1332035795    1.2412930582    1.1160070223
H       -0.9430382011   -0.4851517949    0.7580227382
O       -1.6934700131    0.5885670304   -0.8064955773
H       -1.3266255049    1.2045387244   -1.4721478477
12   
Dihedral (-165, -15) Energy -194.291342864
C        1.6184611054    0.3168235287    1.0623110633
C        0.6654135000    0.7589729000   -0.0082981998
H        1.4332977572    0.8360997384    2.0119583984
H        2.6593933381    0.5156836248    0.7831730019
H        1.5301239272   -0.7593164517    1.2565821243
H        0.8115241753    1.8236277128   -0.2443057441
C       -0.8057926474    0.5219941608    0.3575942008
H        0.8708485839    0.2009759263   -0.9350268341
H       -1.1266852078    1.2363061226    1.1284178620
H       -0.9351453431   -0.4882069252    0.7628094616
O       -1.7053786178    0.6187434792   -0.7876357292
H       -1.2501441159    1.0474287036   -1.5389497361
12   
Dihedral (-165, 0) Energy -194.290917927
C        1.6187773685    0.2812897425    1.0466502039
C        0.6654135000    0.7589728999   -0.0082981997
H        1.4454016293    0.7824686956    2.0080871334
H        2.6605285158    0.4732634170    0.7658298725
H        1.5177381094   -0.7975314004    1.2186371539
H        0.8199346042    1.8262101461   -0.2226490639
C       -0.8062369323    0.5242658733    0.3584282884
H        0.8654210722    0.2191997456   -0.9481388079
H       -1.1281468736    1.2303649864    1.1337618961
H       -0.9303925665   -0.4910254619    0.7577130687
O       -1.7133400804    0.6570140511   -0.7773740450
H       -1.2126170145    0.8764207894   -1.5871963562
12   
Dihedral (-165, 15) Energy -194.291195925
C        1.6155565257    0.2450668797    1.0324365647
C        0.6654135021    0.7589728996   -0.0082981994
H        1.4533315867    0.7281590992    2.0049291637
H        2.6590483023    0.4274664614    0.7516832516
H        1.4992961971   -0.8356497038    1.1824440606
H        0.8280867096    1.8284703498   -0.1998654434
C       -0.8078993734    0.5249184634    0.3540261606
H        0.8625430497    0.2398398425   -0.9614006441
H       -1.1362818873    1.2210859118    1.1331585494
H       -0.9286307292   -0.4962742019    0.7444698003
O       -1.7157632183    0.6951474098   -0.7749409499
H       -1.2134735380    0.6961494622   -1.6133087059
12   
Dihedral (-165, 30) Energy -194.291973999
C        1.6118161169    0.2108865354    1.0183095127
C        0.6654135010    0.7589729030   -0.0082981951
H        1.4550348253    0.6708614364    2.0029358664
H        2.6567719222    0.3909985254    0.7414108192
H        1.4863788694   -0.8722510168    1.1420373711
H        0.8343972104    1.8312116784   -0.1745934743
C       -0.8096838310    0.5251801585    0.3487159128
H        0.8600972153    0.2644953435   -0.9753044191
H       -1.1425595835    1.2126874032    1.1315408147
H       -0.9323871083   -0.5012834999    0.7291944993
O       -1.7147841473    0.7316527804   -0.7746490859
H       -1.2582996315    0.5161353738   -1.6122598818
12   
Dihedral (-165, 45) Energy -194.292763947
C        1.6023418013    0.1800587642    1.0100454344
C        0.6654135010    0.7589729024   -0.0082981962
H        1.4432507520    0.6168928893    2.0049226158
H        2.6502315227    0.3595211692    0.7438505284
H        1.4696012029   -0.9051166680    1.1075070042
H        0.8386946085    1.8339989327   -0.1473983574
C       -0.8133536811    0.5239787543    0.3346024881
H        0.8630127210    0.2904333748   -0.9872630032
H       -1.1528016508    1.2030463180    1.1207994345
H       -0.9435534066   -0.5070798864    0.7024911374
O       -1.7072601090    0.7640019065   -0.7896402107
H       -1.3390407900    0.3481297616   -1.5953013963
12   
Dihedral (-165, 60) Energy -194.293112324
C        1.5931727208    0.1564205108    1.0047138534
C        0.6654135013    0.7589729025   -0.0082981960
H        1.4264487500    0.5701624622    2.0083432497
H        2.6436081040    0.3406219455    0.7518651392
H        1.4594301092   -0.9308623652    1.0766485136
H        0.8387012742    1.8367523291   -0.1215935674
C       -0.8167029494    0.5193836187    0.3179759777
H        0.8683054372    0.3149832817   -0.9967727588
H       -1.1614211056    1.1905177993    1.1084361669
H       -0.9555481106   -0.5151709747    0.6729058270
O       -1.6967244493    0.7867163877   -0.8110931603
H       -1.4576672167    0.2003449056   -1.5573136238
12   
Dihedral (-165, 75) Energy -194.292818653
C        1.5817550199    0.1378286182    1.0038766745
C        0.6654135013    0.7589729020   -0.0082981965
H        1.4019464983    0.5298915237    2.0141098812
H        2.6349840454    0.3292496590    0.7683651089
H        1.4503147175   -0.9512679823    1.0517639720
H        0.8375828589    1.8390479892   -0.0977857562
C       -0.8201862948    0.5140745047    0.2974692644
H        0.8762293757    0.3366211368   -1.0034830028
H       -1.1698410057    1.1756910794    1.0943397440
H       -0.9676655729   -0.5238832431    0.6371195764
O       -1.6814519817    0.8045523763   -0.8419274196
H       -1.6031803111    0.0895054484   -1.5046942363
12   
Dihedral (-165, 90) Energy -194.292037120
C        1.5692406973    0.1269061386    1.0083570938
C        0.6654135013    0.7589729016   -0.0082981972
H        1.3720540175    0.5013682529    2.0221695860
H        2.6249375910    0.3278383003    0.7924071481
H        1.4438996074   -0.9637333588    1.0366997122
H        0.8347152497    1.8409091525   -0.0790547911
C       -0.8230848228    0.5065803433    0.2732933380
H        0.8871774260    0.3528962135   -1.0067437723
H       -1.1809503112    1.1552288915    1.0784126626
H       -0.9750183939   -0.5358086604    0.5945127824
O       -1.6584000851    0.8141648723   -0.8834977577
H       -1.7593788806    0.0204725160   -1.4442116922
12   
Dihedral (-165, 105) Energy -194.291200076
C        1.5571878486    0.1237380238    1.0169896349
C        0.6654135014    0.7589729014   -0.0082981975
H        1.3408367480    0.4857938562    2.0314959282
H        2.6145846588    0.3354103529    0.8203537832
H        1.4407368642   -0.9682227591    1.0317457240
H        0.8299684551    1.8425089488   -0.0664571713
C       -0.8245145439    0.4961485285    0.2485068334
H        0.8997123110    0.3632611637   -1.0069962901
H       -1.1945797413    1.1273955862    1.0636703706
H       -0.9739081087   -0.5524924460    0.5477664299
O       -1.6276989945    0.8144500506   -0.9304090543
H       -1.9147460501   -0.0036571955   -1.3783912590
12   
Dihedral (-165, 120) Energy -194.290800194
C        1.5480005927    0.1285828381    1.0278718532
C        0.6654135012    0.7589729012   -0.0082981984
H        1.3131541915    0.4837542196    2.0407349164
H        2.6057817080    0.3525406794    0.8475380711
H        1.4433544402   -0.9646323695    1.0358347544
H        0.8223094057    1.8441463254   -0.0599530989
C       -0.8239589836    0.4821059226    0.2261721754
H        0.9127217886    0.3685140294   -1.0050300650
H       -1.2093947703    1.0936238621    1.0512623410
H       -0.9637668737   -0.5738933627    0.5028034337
O       -1.5918313048    0.8040689295   -0.9760817782
H       -2.0604476157    0.0154235890   -1.3073740757
12   
Dihedral (-165, 135) Energy -194.291068571
C        1.5409572060    0.1398073323    1.0405379194
C        0.6654135012    0.7589729011   -0.0082981987
H        1.2879059663    0.4920576475    2.0500253499
H        2.5980493543    0.3774648194    0.8742845120
H        1.4504001084   -0.9546074028    1.0469343379
H        0.8112427514    1.8459069822   -0.0579552109
C       -0.8218813220    0.4644842376    0.2055591199
H        0.9275655188    0.3704378735   -1.0013561992
H       -1.2248385163    1.0584742177    1.0371037942
H       -0.9487899851   -0.5981988961    0.4636162919
O       -1.5541945688    0.7836819394   -1.0185437000
H       -2.1892299911    0.0755172672   -1.2355060864
12   
Dihedral (-165, 150) Energy -194.291836707
C        1.5361875167    0.1571732393    1.0545234112
C        0.6654134991    0.7589728992   -0.0082982005
H        1.2672138313    0.5126697838    2.0587087042
H        2.5919494427    0.4071790426    0.8983564630
H        1.4594195499   -0.9381682726    1.0667245818
H        0.7974443387    1.8475153207   -0.0613905649
C       -0.8187447005    0.4455029691    0.1889312726
H        0.9429400819    0.3683784579   -0.9960286207
H       -1.2381580123    1.0302640548    1.0206254552
H       -0.9338270796   -0.6211028322    0.4387935363
O       -1.5199515398    0.7544547414   -1.0538020321
H       -2.2974604939    0.1737668978   -1.1625681217
12   
Dihedral (-165, 165) Energy -194.292661114
C        1.5015952874    0.2124847658    1.1106972155
C        0.6654134996    0.7589728999   -0.0082981998
H        1.2331289143    0.6537942901    2.0803640639
H        2.5671366474    0.4138996195    0.9508341078
H        1.3866684927   -0.8753162224    1.2060656677
H        0.8315336422    1.8359261588   -0.1404347721
C       -0.8294331656    0.5060542367    0.1854950944
H        0.9450181291    0.2867796611   -0.9592197120
H       -1.2409281422    1.1620460244    0.9676751720
H       -0.9849665873   -0.5366905901    0.5062616301
O       -1.4868107532    0.7458644178   -1.0939812329
H       -2.3908574706    0.3745358023   -1.0876793192
12   
Dihedral (-165, 180) Energy -194.293116665
C        1.5046598627    0.2371178572    1.1201223218
C        0.6654135007    0.7589729008   -0.0082981986
H        1.2219821422    0.6813106466    2.0844578198
H        2.5671979953    0.4570511326    0.9648611672
H        1.4092294276   -0.8517316011    1.2237576598
H        0.8102062773    1.8380307323   -0.1474234890
C       -0.8249936611    0.4789904174    0.1768074278
H        0.9612259209    0.2857914687   -0.9540153436
H       -1.2513681976    1.1345932669    0.9518137445
H       -0.9683907744   -0.5639196258    0.5030521123
O       -1.4702320603    0.6986398495   -1.1115969273
H       -2.4311135826    0.5310135944   -1.0439759527
12   
Dihedral (-150, -165) Energy -194.291268162
C        1.5208607780    0.1513292157    1.0636062287
C        0.6654134991    0.7589729001   -0.0082981999
H        1.2636550307    0.5273286723    2.0636145730
H        2.5828882557    0.3706282317    0.9027704232
H        1.4123791772   -0.9406150393    1.0897834215
H        0.8285337314    1.8415373736   -0.0858441080
C       -0.8292908337    0.4740504054    0.1723814976
H        0.9374183400    0.3380966140   -0.9855064573
H       -1.3039264751    1.2372093974    0.8070026722
H       -0.9661710330   -0.5021925617    0.6643043088
O       -1.4320144528    0.4421614075   -1.1568443727
H       -2.4058127231    0.5011057997   -1.0924339819
12   
Dihedral (-150, -150) Energy -194.290765178
C        1.5328852146    0.1774371546    1.0684139235
C        0.6654134987    0.7589729008   -0.0082981997
H        1.2724932561    0.5610159253    2.0647300588
H        2.5911049182    0.4107712109    0.9022235225
H        1.4407974973   -0.9156182472    1.1075643011
H        0.8090550136    1.8437711099   -0.0968816639
C       -0.8245882779    0.4492349009    0.1758439661
H        0.9444211500    0.3340383725   -0.9817301804
H       -1.3101008504    1.2064739670    0.8084611807
H       -0.9450682755   -0.5261695720    0.6716108990
O       -1.4395762062    0.3911571581   -1.1485464359
H       -2.3758667363    0.6666838895   -1.1081821235
12   
Dihedral (-150, -135) Energy -194.290207389
C        1.5451422155    0.2015523769    1.0712200920
C        0.6654135008    0.7589728998   -0.0082981985
H        1.2862801284    0.5954125421    2.0639644341
H        2.5999153128    0.4437248595    0.8960257570
H        1.4646317446   -0.8917832088    1.1252419084
H        0.7935796365    1.8451644388   -0.1083053229
C       -0.8199696122    0.4272490884    0.1835950741
H        0.9475931620    0.3283155844   -0.9782488957
H       -1.3144319605    1.1727824378    0.8219768412
H       -0.9203116938   -0.5505049672    0.6765053320
O       -1.4593709582    0.3417117020   -1.1293562982
H       -2.3123757408    0.8157932850   -1.1347653319
12   
Dihedral (-150, -120) Energy -194.290046052
C        1.5354874337    0.2486047403    1.1018800244
C        0.6654134995    0.7589729011   -0.0082981998
H        1.3018556078    0.7228411415    2.0652952374
H        2.5967026138    0.4370479866    0.9013990850
H        1.4146682529   -0.8341023898    1.2359951020
H        0.8383449154    1.8286354282   -0.1910383325
C       -0.8307130242    0.5032913303    0.2244370040
H        0.9167914229    0.2443853143   -0.9450855179
H       -1.2859576165    1.3019910675    0.8261679221
H       -0.9586444838   -0.4383387312    0.7745365080
O       -1.5180624772    0.3407191735   -1.0573151110
H       -2.2133884051    1.0158530404   -1.1701810936
12   
Dihedral (-150, -105) Energy -194.290452989
C        1.5493179942    0.2620016204    1.0970218333
C        0.6654135012    0.7589729004   -0.0082981973
H        1.3208412058    0.7409789545    2.0593139908
H        2.6073709267    0.4564614215    0.8859080597
H        1.4369699852   -0.8205602014    1.2390907225
H        0.8308189776    1.8294660712   -0.1966438381
C       -0.8275856716    0.4922659288    0.2416304647
H        0.9122629824    0.2408462530   -0.9442915750
H       -1.2825096814    1.2790266921    0.8592337267
H       -0.9389773138   -0.4559423237    0.7810757805
O       -1.5526485952    0.3118624791   -1.0157559235
H       -2.0855374607    1.1024093310   -1.2261606664
12   
Dihedral (-150, -90) Energy -194.291193479
C        1.5649583514    0.2730183213    1.0892751266
C        0.6654135000    0.7589729003   -0.0082981996
H        1.3467622377    0.7591762550    2.0502644328
H        2.6197968415    0.4683813769    0.8635676136
H        1.4570984036   -0.8086013163    1.2412486751
H        0.8324471628    1.8269453950   -0.2111159999
C       -0.8251438873    0.5004297693    0.2709772973
H        0.8966677891    0.2272302093   -0.9408283975
H       -1.2640654070    1.2917404309    0.8954340838
H       -0.9322711453   -0.4451669922    0.8131092795
O       -1.5912001673    0.3030642499   -0.9571441223
H       -1.9344114326    1.1570047110   -1.2866825630
12   
Dihedral (-150, -75) Energy -194.291794978
C        1.5805964031    0.2705621462    1.0751662355
C        0.6654135011    0.7589728997   -0.0082981957
H        1.3717893135    0.7509406875    2.0410308896
H        2.6317408637    0.4717314963    0.8376811911
H        1.4787068947   -0.8121411280    1.2223190715
H        0.8271189713    1.8292021344   -0.2052556950
C       -0.8215691396    0.4961105669    0.2891501778
H        0.8891125173    0.2327725789   -0.9462154231
H       -1.2503718463    1.2854145944    0.9240875007
H       -0.9252884210   -0.4525116975    0.8247829631
O       -1.6139969525    0.3006229336   -0.9205251311
H       -1.7627976145    1.1585741399   -1.3672419716
12   
Dihedral (-150, -60) Energy -194.291862528
C        1.5950145019    0.2643203791    1.0599531099
C        0.6654135002    0.7589729002   -0.0082981998
H        1.4024006569    0.7443215302    2.0292005210
H        2.6432918425    0.4612963697    0.8069371264
H        1.4902603891   -0.8180084704    1.2067295680
H        0.8341443749    1.8269894859   -0.2111326149
C       -0.8191175223    0.5137813199    0.3165226854
H        0.8706800612    0.2256826413   -0.9471940478
H       -1.2238861210    1.3170428059    0.9505042396
H       -0.9306713048   -0.4278909113    0.8617020857
O       -1.6394997931    0.3224826768   -0.8741925605
H       -1.5903470991    1.1183932914   -1.4425982255
12   
Dihedral (-150, -45) Energy -194.291275812
C        1.6078861600    0.2452345860    1.0394700157
C        0.6654135015    0.7589729012   -0.0082981995
H        1.4281504554    0.7105186737    2.0181395732
H        2.6531501404    0.4444830663    0.7761369794
H        1.5024174041   -0.8389145835    1.1702917277
H        0.8338443240    1.8293913596   -0.1968398196
C       -0.8159100095    0.5141842655    0.3320229650
H        0.8617325902    0.2378171092   -0.9568538526
H       -1.2071999895    1.3185311726    0.9728912201
H       -0.9276223931   -0.4285980369    0.8754506762
O       -1.6551320062    0.3435132681   -0.8490463275
H       -1.4338376574    1.0267783579   -1.5144183614
12   
Dihedral (-150, -30) Energy -194.290245057
C        1.6159912545    0.2184459031    1.0184600447
C        0.6654134988    0.7589728995   -0.0082982002
H        1.4498870717    0.6667476753    2.0072334984
H        2.6595156984    0.4158787497    0.7471658308
H        1.5040404211   -0.8670730863    1.1301068918
H        0.8376770080    1.8314089265   -0.1781045837
C       -0.8139141767    0.5167775880    0.3436437739
H        0.8542017645    0.2540507826   -0.9682402579
H       -1.1934825402    1.3203832560    0.9911867307
H       -0.9235775540   -0.4278222947    0.8859239404
O       -1.6715379861    0.3743472873   -0.8291571140
H       -1.3112807472    0.8981230699   -1.5726451711
12   
Dihedral (-150, -15) Energy -194.289237471
C        1.6186414401    0.1862165779    0.9983331586
C        0.6654134999    0.7589728997   -0.0082981998
H        1.4660972474    0.6163761683    1.9971659780
H        2.6619119594    0.3774290837    0.7217787849
H        1.4947303793   -0.8998819763    1.0891518222
H        0.8455804177    1.8325611285   -0.1572197790
C       -0.8135243922    0.5204446225    0.3496560756
H        0.8487051274    0.2733974382   -0.9805102552
H       -1.1869408561    1.3198550785    1.0035689760
H       -0.9188947720   -0.4278233359    0.8893274938
O       -1.6869601099    0.4118906031   -0.8159040502
H       -1.2291948956    0.7420583569   -1.6137343282
12   
Dihedral (-150, 0) Energy -194.288744751
C        1.6146904525    0.1527418162    0.9823365130
C        0.6654134992    0.7589729000   -0.0082982003
H        1.4653838308    0.5591002312    1.9914834954
H        2.6593545118    0.3429759945    0.7105385566
H        1.4823470601   -0.9342946045    1.0467276690
H        0.8563991924    1.8330436660   -0.1351386562
C       -0.8148000629    0.5255166370    0.3503066832
H        0.8459154858    0.2950892962   -0.9924325592
H       -1.1876638873    1.3196265244    1.0080137701
H       -0.9152933787   -0.4266961238    0.8880147054
O       -1.6989607733    0.4515918016   -0.8097402237
H       -1.1881355615    0.5655828405   -1.6345284527
12   
Dihedral (-150, 15) Energy -194.288975414
C        1.6079871317    0.1142268864    0.9642538635
C        0.6654134970    0.7589729003   -0.0082982002
H        1.4681559640    0.4982733359    1.9834318843
H        2.6547373171    0.2946444554    0.6938278353
H        1.4589775568   -0.9719734651    1.0035423991
H        0.8679346240    1.8333101804   -0.1083677103
C       -0.8175299644    0.5308622535    0.3451887533
H        0.8429719631    0.3222034305   -1.0059625257
H       -1.1934836263    1.3160388876    1.0089674526
H       -0.9180368679   -0.4285910544    0.8739351793
O       -1.7040838697    0.4992269065   -0.8134938515
H       -1.1838987114    0.3922858175   -1.6336403989
12   
Dihedral (-150, 30) Energy -194.289727149
C        1.5997557428    0.0840326985    0.9516290386
C        0.6654135022    0.7589728990   -0.0082982002
H        1.4584417277    0.4438341444    1.9794733806
H        2.6489403018    0.2637722913    0.6901910618
H        1.4440025393   -1.0020472110    0.9645623309
H        0.8759143711    1.8336610829   -0.0825278365
C       -0.8209035731    0.5345304718    0.3362606647
H        0.8423177619    0.3492094095   -1.0173474211
H       -1.2030153063    1.3146039814    1.0001805885
H       -0.9262422343   -0.4294591359    0.8589655422
O       -1.7018169899    0.5373605008   -0.8254633915
H       -1.2176803003    0.2114719577   -1.6100211563
12   
Dihedral (-150, 45) Energy -194.290529411
C        1.5898247810    0.0554319897    0.9406454132
C        0.6654135020    0.7589728987   -0.0082982005
H        1.4470278315    0.3927498161    1.9759831977
H        2.6417846955    0.2318742326    0.6881647621
H        1.4258362563   -1.0297632251    0.9290411014
H        0.8807711650    1.8342106600   -0.0545719015
C       -0.8250831319    0.5361331880    0.3214596288
H        0.8433913222    0.3773823727   -1.0274556658
H       -1.2119950710    1.3107978720    0.9875050515
H       -0.9415937532   -0.4331466996    0.8337461855
O       -1.6929255997    0.5735622332   -0.8480883846
H       -1.2913585447    0.0495652696   -1.5702973477
12   
Dihedral (-150, 60) Energy -194.290892295
C        1.5796819761    0.0333734658    0.9338369377
C        0.6654135005    0.7589728993   -0.0082982004
H        1.4302449619    0.3496384329    1.9750178411
H        2.6343889206    0.2107723865    0.6935383399
H        1.4129235850   -1.0511893040    0.8991862436
H        0.8817770825    1.8347516031   -0.0273525904
C       -0.8292029669    0.5344238060    0.3023751365
H        0.8472286949    0.4028590030   -1.0349324970
H       -1.2209116766    1.3042145824    0.9709287193
H       -0.9587287167   -0.4392995355    0.8029278797
O       -1.6793498084    0.6005061365   -0.8791505619
H       -1.4038330239   -0.0883081872   -1.5175006772
12   
Dihedral (-150, 75) Energy -194.290602137
C        1.5690925727    0.0177172782    0.9318636131
C        0.6654134996    0.7589729013   -0.0082981997
H        1.4088072693    0.3158434200    1.9769243590
H        2.6264913662    0.1987105850    0.7062345675
H        1.4035163043   -1.0664240596    0.8769629673
H        0.8800921669    1.8352472945   -0.0035731072
C       -0.8330004364    0.5303323523    0.2799940272
H        0.8540543617    0.4235017943   -1.0394763645
H       -1.2292425139    1.2940646850    0.9534347981
H       -0.9743022766   -0.4479054535    0.7671261652
O       -1.6612190214    0.6188137809   -0.9175157101
H       -1.5468254920   -0.1895836925   -1.4563229533
12   
Dihedral (-150, 90) Energy -194.289818934
C        1.5581630020    0.0091650408    0.9355166664
C        0.6654135001    0.7589728993   -0.0082982007
H        1.3834982193    0.2937356358    1.9822015103
H        2.6180276713    0.1958021930    0.7263950267
H        1.3971582684   -1.0748696743    0.8648752748
H        0.8767401889    1.8357195220    0.0135225368
C       -0.8358101686    0.5238065160    0.2556131452
H        0.8635645210    0.4365052348   -1.0407843000
H       -1.2393138053    1.2777735022    0.9370823234
H       -0.9838630386   -0.4607283216    0.7260197754
O       -1.6361818740    0.6275038257   -0.9622525201
H       -1.7046976321   -0.2475290834   -1.3917226606
12   
Dihedral (-150, 105) Energy -194.288984309
C        1.5469385410    0.0081294764    0.9451941992
C        0.6654135000    0.7589729000   -0.0082981997
H        1.3541766712    0.2836459742    1.9912287518
H        2.6088333102    0.2029139903    0.7544035654
H        1.3942877210   -1.0763683611    0.8635143253
H        0.8718161587    1.8364838826    0.0226265076
C       -0.8371994877    0.5150276971    0.2302327919
H        0.8757057653    0.4413833666   -1.0390221056
H       -1.2516666553    1.2556337318    0.9217602274
H       -0.9859100082   -0.4777084829    0.6813523891
O       -1.6024225291    0.6261924401   -1.0119620827
H       -1.8627685405   -0.2589698612   -1.3303761198
12   