4    
Dihedral (-165,) Energy -9.054548862
H       -0.9742902661   -0.3294804186   -0.8556329491
O       -0.7072533328   -0.1570158586    0.0563616883
O        0.7099259460   -0.1521543476   -0.0406142631
H        0.9780576529   -0.2256793752    0.8842156239
4    
Dihedral (-150,) Energy -9.054213818
H       -0.9667128151   -0.3890786718   -0.8396237879
O       -0.7074719323   -0.0971204034    0.0440514434
O        0.7089913692   -0.0914216287   -0.0345365339
H        0.9716332782   -0.2867092961    0.8744389783
4    
Dihedral (-135,) Energy -9.053721811
H       -0.9549036869   -0.4459186733   -0.8156388965
O       -0.7071836608   -0.0399654098    0.0261240502
O        0.7079124751   -0.0325363949   -0.0225833251
H        0.9606147726   -0.3459095220    0.8564281714
4    
Dihedral (-120,) Energy -9.053102007
H       -0.9390951764   -0.4990097439   -0.7842831027
O       -0.7062776764    0.0132975390    0.0029311685
O        0.7062733206    0.0235891347   -0.0048557576
H        0.9455395322   -0.4022069297    0.8305376918
4    
Dihedral (-105,) Energy -9.052305690
H       -0.9193448422   -0.5475857952   -0.7461126264
O       -0.7048082583    0.0626392308   -0.0251128585
O        0.7038524106    0.0753173027    0.0180194406
H        0.9267405899   -0.4547007383    0.7975360442
4    
Dihedral (-90,) Energy -9.051208820
H       -0.8985182538   -0.5907225022   -0.7028096226
O       -0.7024197948    0.1064685708   -0.0586220985
O        0.7007544363    0.1222693499    0.0468668559
H        0.9066235124   -0.5023454184    0.7588947652
4    
Dihedral (-75,) Energy -9.049682847
H       -0.8778113092   -0.6278020724   -0.6556065128
O       -0.6989355519    0.1441710952   -0.0972181052
O        0.6966809125    0.1636648458    0.0814027889
H        0.8865057486   -0.5443638686    0.7157518292
4    
Dihedral (-60,) Energy -9.047706359
H       -0.8604212254   -0.6581308667   -0.6065821160
O       -0.6937950567    0.1749250450   -0.1412104417
O        0.6910533754    0.1986812237    0.1220193941
H        0.8696026067   -0.5798055020    0.6701031636
4    
Dihedral (-45,) Energy -9.045457593
H       -0.8502658589   -0.6811155755   -0.5584180191
O       -0.6851628298    0.1980069109   -0.1901886046
O        0.6820443139    0.2265259984    0.1683837912
H        0.8598240747   -0.6077475338    0.6245529324
4    
Dihedral (-30,) Energy -9.043320137
H       -0.8484648387   -0.6966699518   -0.5126295726
O       -0.6718168451    0.2133512959   -0.2422514970
O        0.6684338967    0.2469210519    0.2186123584
H        0.8582874871   -0.6279325960    0.5805988112
4    
Dihedral (-15,) Energy -9.041773936
H       -0.8569008777   -0.7051577363   -0.4712029388
O       -0.6533395188    0.2213105344   -0.2954231870
O        0.6498008731    0.2600083634    0.2707038638
H        0.8668793233   -0.6404913614    0.5402523620
4    
Dihedral (0,) Energy -9.041208662
H       -0.8721070766   -0.7068627070   -0.4330712675
O       -0.6289893710    0.2223911795   -0.3470376636
O        0.6253983686    0.2660078362    0.3219549677
H        0.8821378790   -0.6458665087    0.5024841634
4    
Dihedral (15,) Energy -9.041773764
H       -0.8957834709   -0.7017610678   -0.3998175095
O       -0.5995269694    0.2165131720   -0.3955537186
O        0.5960430139    0.2647466275    0.3708664492
H        0.9057072265   -0.6438289317    0.4688349788
4    
Dihedral (30,) Energy -9.043320441
H       -0.9252514817   -0.6899739807   -0.3706344222
O       -0.5663053642    0.2041970402   -0.4398814614
O        0.5626725172    0.2561398746    0.4160777300
H        0.9353240286   -0.6346931341    0.4387683536
4    
Dihedral (45,) Energy -9.045457724
H       -0.9632642440   -0.6711876551   -0.3479807625
O       -0.5308744459    0.1843814022   -0.4782785303
O        0.5276110753    0.2401375419    0.4566977809
H        0.9729672146   -0.6176614890    0.4138917119
4    
Dihedral (60,) Energy -9.047706533
H       -1.0079713227   -0.6452004860   -0.3315077166
O       -0.4959124162    0.1573755040   -0.5107465238
O        0.4930009044    0.2161464704    0.4917390840
H        1.0173225344   -0.5926517885    0.3948453563
4    
Dihedral (75,) Energy -9.049682847
H       -0.8830997765    0.1122048846   -0.6938178472
O       -0.6936311100   -0.5955508334   -0.0590578577
O        0.7019851069   -0.5765958824    0.1196229312
H        0.8811859796    0.1956118311    0.6775826737
4    
Dihedral (90,) Energy -9.051208820
H       -0.9032365145    0.0701710598   -0.7369382274
O       -0.6976855033   -0.5541316351   -0.0245454694
O        0.7054906746   -0.5389191432    0.0810060397
H        0.9018715433    0.1585496186    0.7248075572
4    
Dihedral (105,) Energy -9.052305691
H       -0.9233935190    0.0225129230   -0.7755550855
O       -0.7007442709   -0.5071428861    0.0042749252
O        0.7079196552   -0.4951280070    0.0474747583
H        0.9226583347    0.1154278700    0.7681353020
4    
Dihedral (120,) Energy -9.053102035
H       -0.9421493120   -0.0299761942   -0.8084598827
O       -0.7029926093   -0.4553165771    0.0272147149
O        0.7094670707   -0.4459282657    0.0192924345
H        0.9421149506    0.0668910370    0.8062827333
4    
Dihedral (135,) Energy -9.053721800
H       -0.9572640774   -0.0862691758   -0.8342221206
O       -0.7046681116   -0.3995631463    0.0448244727
O        0.7103835661   -0.3922791221   -0.0039946498
H        0.9579887229    0.0137814441    0.8377221978
4    
Dihedral (150,) Energy -9.054213818
H       -0.9684236708   -0.1454730697   -0.8522896343
O       -0.7057787633   -0.3407653228    0.0567063429
O        0.7106891676   -0.3350172654   -0.0218993030
H        0.9699533665   -0.0430743421    0.8618124945
4    
Dihedral (165,) Energy -9.054548900
H       -0.9750370736   -0.2065007077   -0.8620464521
O       -0.7065026588   -0.2799825224    0.0627201087
O        0.7105780698   -0.2751798865   -0.0341726716
H        0.9774017627   -0.1026668834    0.8778290150
4    
Dihedral (180,) Energy -9.054669695
H       -0.9768219134   -0.2682260122   -0.8631906105
O       -0.7070402397   -0.2183400045    0.0627330359
O        0.7102027605   -0.2138309205   -0.0404449563
H        0.9800993926   -0.1639330627    0.8852326309
