25   
Dihedral (-170,) Energy -502.553775000
C        0.2080221459    0.3573063223   -1.8045458077
C       -1.1345366068    0.3856445967   -1.4208004936
C       -1.4766320427    0.3537845131   -0.0629619554
C        1.2326646323    0.2979137070   -0.8439675997
C        2.6868157418    0.2992755344   -1.3108024089
C       -0.4652310178    0.2935252034    0.8997338415
C        5.5573587616   -0.5741600977    1.8113090654
C        5.3045401389    0.7508938507    1.4412322260
C        0.8802205723    0.2661713603    0.5126800057
C        4.3842128638    1.0317688690    0.4253382337
C        3.7057522894   -0.0035122774   -0.2352960926
C        3.9651987275   -1.3301130853    0.1469008659
C        4.8840264836   -1.6153374702    1.1606337529
H        0.4683692089    0.3796631826   -2.8595740661
H       -1.9119188839    0.4299761823   -2.1770743819
H       -2.5189964080    0.3740591083    0.2378536620
H        2.7900939785   -0.4281609526   -2.1270558472
H        2.9103424346    1.2805546570   -1.7524001759
H       -0.7196873897    0.2668371565    1.9546161215
H        6.2721057193   -0.7945657627    2.5973676470
H        5.8228197508    1.5635251627    1.9400805725
H        1.6578582099    0.2162422823    1.2658750161
H        4.1884518195    2.0615308456    0.1406832328
H        3.4396885653   -2.1386344991   -0.3528075302
H        5.0757317175   -2.6458909133    1.4419049561
25   
Dihedral (-160,) Energy -502.554033150
C        0.2043034497    0.1908002977   -1.7883119139
C       -1.1381684349    0.1278597184   -1.4057103501
C       -1.4851413344    0.1874640318   -0.0506560378
C        1.2218357532    0.3142953446   -0.8275197396
C        2.6727867861    0.4309872164   -1.2843695090
C       -0.4799983320    0.3110937273    0.9136078723
C        5.5850188658   -0.5661946606    1.7639962813
C        5.4095280663    0.7641621917    1.3713341584
C        0.8636090702    0.3746009413    0.5275872849
C        4.4733137924    1.0860423518    0.3813891135
C        3.7022480123    0.0867860548   -0.2293835566
C        3.8843972092   -1.2466717832    0.1756105016
C        4.8180507206   -1.5722881407    1.1622951264
H        0.4689098360    0.1405088932   -2.8411936127
H       -1.9108632934    0.0283005567   -2.1614929956
H       -2.5268704372    0.1354260892    0.2484902951
H        2.8147866676   -0.2136070397   -2.1619640248
H        2.8500139947    1.4581147681   -1.6334770023
H       -0.7388184307    0.3568846452    1.9667703175
H        6.3106647512   -0.8185825263    2.5302310083
H        5.9988565261    1.5501959028    1.8325055270
H        1.6385980354    0.4654227522    1.2801476072
H        4.3382209982    2.1205457958    0.0792641962
H        3.2834100514   -2.0266771492   -0.2823725136
H        4.9485791760   -2.6071715914    1.4621445123
25   
Dihedral (-150,) Energy -502.554276670
C        0.2311547200    0.0647607068   -1.7711023738
C       -1.1091276792   -0.0744638943   -1.3973933872
C       -1.4814193370    0.0722467335   -0.0565582173
C        1.2186853219    0.3544737958   -0.8163856470
C        2.6652942519    0.5508362189   -1.2534158539
C       -0.5042053433    0.3585820166    0.9031763812
C        5.5914386129   -0.5969386980    1.7296071217
C        5.4678507472    0.7424689757    1.3491509197
C        0.8351797632    0.4986443931    0.5262489603
C        4.5248319979    1.1127468840    0.3825241485
C        3.6957776474    0.1536649490   -0.2160330405
C        3.8256293575   -1.1895061393    0.1772988601
C        4.7658280864   -1.5632988998    1.1399943891
H        0.5163331055   -0.0544955830   -2.8128226001
H       -1.8584915674   -0.3015641093   -2.1490593621
H       -2.5200994161   -0.0393556641    0.2369060998
H        2.8307158287   -0.0204703770   -2.1763477881
H        2.8182332783    1.6061659080   -1.5199308186
H       -0.7832521913    0.4706306948    1.9461097418
H        6.3213724294   -0.8870556220    2.4782314817
H        6.1015622013    1.4982686018    1.8019826557
H        1.5903379919    0.7106135624    1.2752749721
H        4.4297725994    2.1543856715    0.0896844904
H        3.1783536011   -1.9381227751   -0.2696597686
H        4.8555154315   -2.6049187391    1.4314409123
25   
Dihedral (-140,) Energy -502.554488220
C        0.1281276830    0.8016633198    1.4557751053
C       -1.1680195322    0.8132087597    0.9286908148
C       -1.4690536160    0.0542128443   -0.2066692206
C        1.1398351884    0.0338173709    0.8602086240
C        2.5355088323   -0.0058695619    1.4646209163
C       -0.4656000026   -0.7136793485   -0.8102892961
C        5.7406513162    0.0853667658   -1.4526495634
C        5.6506030193   -0.9740742796   -0.5452551190
C        0.8278435089   -0.7225093413   -0.2816298142
C        4.6140526618   -1.0053336686    0.3956378083
C        3.6577177755    0.0185213199    0.4440745954
C        3.7548660449    1.0765435979   -0.4763151627
C        4.7875641274    1.1118539027   -1.4154880821
H        0.3587518567    1.3957731725    2.3357226989
H       -1.9373651928    1.4161723981    1.4005584024
H       -2.4724420105    0.0634066024   -0.6196600135
H        2.6432626614    0.8428665453    2.1532671366
H        2.6366212850   -0.9098388575    2.0813230092
H       -0.6902899914   -1.3028383697   -1.6937572097
H        6.5422235806    0.1120389764   -2.1834824534
H        6.3819883216   -1.7755571718   -0.5693323985
H        1.6069528972   -1.3077091782   -0.7589744925
H        4.5450440275   -1.8304692912    1.0985928362
H        3.0085654090    1.8646803556   -0.4571587685
H        4.8498432301    1.9360659578   -2.1188605170
25   
Dihedral (-130,) Energy -502.554582540
C        0.1587620925    0.9170312923    1.3126753721
C       -1.1123037947    0.9877537602    0.7300652522
C       -1.4422989026    0.1476106075   -0.3375813107
C        1.1142499087    0.0071168451    0.8387280962
C        2.4882742492   -0.0874082625    1.4810177500
C       -0.4933468933   -0.7624604895   -0.8212563042
C        5.7733583940    0.0968590762   -1.3433362977
C        5.6971512751   -0.9560538147   -0.4270034649
C        0.7738987705   -0.8291405217   -0.2383079970
C        4.6335350251   -1.0172817185    0.4814268207
C        3.6365903683   -0.0315318262    0.4882809352
C        3.7206211314    1.0194219032   -0.4410570568
C        4.7804447764    1.0854207305   -1.3479605552
H        0.4127671517    1.5729440934    2.1405481180
H       -1.8396552247    1.6994363070    1.1074833334
H       -2.4263230635    0.2023019313   -0.7915860689
H        2.5928357618    0.7255309835    2.2120487877
H        2.5608758794   -1.0220765862    2.0533572583
H       -0.7407836205   -1.4152117778   -1.6523942549
H        6.5952506485    0.1470618259   -2.0499583403
H        6.4591593192   -1.7288761902   -0.4197226978
H        1.5144213130   -1.5230703758   -0.6232775041
H        4.5746160208   -1.8371331565    1.1915052346
H        2.9430564775    1.7766067146   -0.4553494025
H        4.8320967975    1.9034610412   -2.0593961918
25   
Dihedral (-120,) Energy -502.554582270
C        0.2706522884    1.0793071367    1.2140194994
C       -0.9799294684    1.2468857483    0.6066523037
C       -1.4062666206    0.3494932985   -0.3765409465
C        1.1085350265    0.0165431288    0.8486063337
C        2.4707451766   -0.1652437963    1.4943167254
C       -0.5750161170   -0.7147156459   -0.7508228189
C        5.7620598151   -0.0027402885   -1.3268188553
C        5.6590181292   -1.0713896901   -0.4314423646
C        0.6723351316   -0.8768625882   -0.1447559457
C        4.5940169137   -1.1259829865    0.4757170856
C        3.6217019063   -0.1163049107    0.5017785301
C        3.7314650564    0.9506884164   -0.4059745831
C        4.7932392658    1.0092174178   -1.3112237860
H        0.5994341313    1.7774251625    1.9785885525
H       -1.6159658819    2.0759159190    0.9001584755
H       -2.3745625866    0.4768771105   -0.8493349947
H        2.6092518665    0.6130535439    2.2567145114
H        2.5036157544   -1.1245544425    2.0268780189
H       -0.8987459598   -1.4134408144   -1.5156449905
H        6.5852034222    0.0413995992   -2.0324215474
H        6.4019405584   -1.8625765499   -0.4398502717
H        1.3231586145   -1.6918260551   -0.4465154875
H        4.5150881421   -1.9583818879    1.1691434483
H        2.9717297472    1.7259038143   -0.4058122222
H        4.8645516335    1.8396235815   -2.0064653980
25   
Dihedral (-110,) Energy -502.554452550
C        0.3353297750    1.1236098381    1.0986774381
C       -0.8927675360    1.3448160442    0.4633587351
C       -1.3857983505    0.4110506019   -0.4525654015
C        1.0842623198   -0.0308305162    0.8293725168
C        2.4324626934   -0.2624967630    1.4845740903
C       -0.6437342981   -0.7445097058   -0.7307521630
C        5.7936346627    0.0586144153   -1.2425569354
C        5.7106594073   -1.0158474230   -0.3516874459
C        0.5813345256   -0.9605189604   -0.0966046008
C        4.6214708549   -1.1202118603    0.5209974987
C        3.6039209807   -0.1550832742    0.5179447307
C        3.6935829385    0.9174794252   -0.3847778663
C        4.7802408891    1.0253833458   -1.2561396766
H        0.7141857939    1.8495972879    1.8124666871
H       -1.4607023405    2.2429557428    0.6841829115
H       -2.3373197839    0.5795512770   -0.9460387296
H        2.5646439922    0.4641452929    2.2978364499
H        2.4524565612   -1.2541242364    1.9534564520
H       -1.0199442195   -1.4731530825   -1.4417114560
H        6.6354035541    0.1409981387   -1.9223010621
H        6.4878499962   -1.7733437922   -0.3378275646
H        1.1619665928   -1.8498021781   -0.3232729298
H        4.5580098054   -1.9575058352    1.2101879701
H        2.9007946632    1.6580752221   -0.4093782675
H        4.8353128554    1.8594651790   -1.9484921562
25   
Dihedral (-100,) Energy -502.554143970
C        0.4577291590    1.2368834164    0.9656809879
C       -0.7489096212    1.5217437854    0.3157979806
C       -1.3593300020    0.5513975943   -0.4847542646
C        1.0694123881   -0.0178270088    0.8257476797
C        2.4052351689   -0.3124737149    1.4785597255
C       -0.7565505932   -0.7044095243   -0.6320135875
C        5.8057256488   -0.0179756212   -1.2067278347
C        5.7095840296   -1.0815303653   -0.3037855906
C        0.4488908274   -0.9835772778    0.0161537288
C        4.6066428446   -1.1767723305    0.5520548718
C        3.5873797720   -0.2133526977    0.5211751700
C        3.6903045663    0.8472576953   -0.3935899974
C        4.7911452841    0.9461170821   -1.2485861895
H        0.9275390856    1.9915780868    1.5901744088
H       -1.2099939414    2.4969002009    0.4362259791
H       -2.2952177701    0.7691294159   -0.9887344212
H        2.5583335422    0.3865746724    2.3124903897
H        2.3909590284   -1.3168926438    1.9180707946
H       -1.2248370945   -1.4623765507   -1.2518393670
H        6.6583109530    0.0574261261   -1.8736819569
H        6.4874553547   -1.8376438959   -0.2680926043
H        0.9211156597   -1.9536392402   -0.1088230348
H        4.5335375957   -2.0058734594    1.2501909144
H        2.8974963537    1.5860912342   -0.4422582304
H        4.8552937130    1.7715606437   -1.9504858540
25   
Dihedral (-90,) Energy -502.553666400
C        0.4367086426    0.9443929970    0.9936634066
C       -0.6821900894    1.5409579159    0.4049401788
C       -1.2996280949    0.9403184904   -0.6984704680
C        0.9581392157   -0.2584022949    0.4914537270
C        2.1820211503   -0.8922192539    1.1181903004
C       -0.7938614807   -0.2621508984   -1.2039961072
C        6.0181914453    0.2862986104   -0.5523830617
C        5.9070410913   -0.0708460593    0.7961050976
C        0.3235970296   -0.8571348915   -0.6087569402
C        4.6639727277   -0.4315641902    1.3242944434
C        3.5138339077   -0.4471546050    0.5183762477
C        3.6349752356   -0.0801197911   -0.8303808719
C        4.8774358214    0.2814542695   -1.3619115388
H        0.9168896664    1.4146532497    1.8465963329
H       -1.0726050818    2.4705504076    0.8065292347
H       -2.1685394560    1.4019580091   -1.1557735549
H        2.1960179758   -0.6823531596    2.1940336391
H        2.1052607601   -1.9853138037    1.0221526472
H       -1.2708858557   -0.7385380336   -2.0544780689
H        6.9808461455    0.5697054269   -0.9651758603
H        6.7838703672   -0.0631674554    1.4359129686
H        0.7075222770   -1.7967436586   -0.9955815157
H        4.5827641340   -0.7045477412    2.3729808795
H        2.7539796851   -0.0659125608   -1.4620739204
H        4.9519090686    0.5641876499   -2.4073029825
25   
Dihedral (-80,) Energy -502.554075570
C        0.5188514506    0.9045507103    0.8923706540
C       -0.5901407683    1.5224262731    0.3086598251
C       -1.2744698852    0.8950341507   -0.7399204162
C        0.9620195440   -0.3496518130    0.4414641037
C        2.1843545910   -0.9989754587    1.0575764792
C       -0.8423598960   -0.3546543568   -1.1949439418
C        5.9898141398    0.4655765512   -0.4381921672
C        5.8344611783    0.1550163126    0.9167801991
C        0.2665536278   -0.9727263784   -0.6056202131
C        4.6012873112   -0.3020399709    1.3933934146
C        3.5085190795   -0.4596623233    0.5272452368
C        3.6732419695   -0.1391179775   -0.8296051405
C        4.9040778290    0.3179716419   -1.3093091534
H        1.0529337085    1.3972356883    1.6995072127
H       -0.9212095196    2.4907747062    0.6700320430
H       -2.1356894832    1.3742331915   -1.1938128421
H        2.1645290363   -0.8703253571    2.1463333306
H        2.1427541925   -2.0822742985    0.8759857355
H       -1.3688503882   -0.8504970759   -2.0041017180
H        6.9442163026    0.8230128476   -0.8107388147
H        6.6680994983    0.2726260209    1.6019089924
H        0.5952915883   -1.9468057880   -0.9565605904
H        4.4842663587   -0.5396783920    2.4471466321
H        2.8305666825   -0.2369022429   -1.5056614145
H        5.0141485620    0.5631628148   -2.3609928780
25   
Dihedral (-70,) Energy -502.554368580
C        0.8078183568    1.0420270082    0.9739606877
C       -0.1887035270    1.9367317513    0.5778805261
C       -1.0922684238    1.5812181665   -0.4322643574
C        0.9173198291   -0.2227991712    0.3717096577
C        2.0144968458   -1.1788593260    0.7962140482
C       -0.9909489728    0.3263907402   -1.0399487068
C        6.0112652308   -0.0000966351   -0.4220655478
C        5.7922791154   -0.5450278116    0.8472764830
C        0.0078476148   -0.5687199277   -0.6379491975
C        4.5002447313   -0.9118980080    1.2388184533
C        3.4109377897   -0.7440632795    0.3706766324
C        3.6402626392   -0.1909942584   -0.8995670693
C        4.9297865034    0.1762585666   -1.2937751782
H        1.5147528062    1.3231591987    1.7489053306
H       -0.2619617685    2.9093331270    1.0539284039
H       -1.8663679025    2.2763232521   -0.7403834242
H        2.0018979243   -1.2973451289    1.8868808904
H        1.8014873380   -2.1729056243    0.3788605918
H       -1.6864276638    0.0426279474   -1.8233366166
H        7.0116871429    0.2885441449   -0.7274943059
H        6.6228845903   -0.6795415183    1.5329510166
H        0.0829215379   -1.5445525946   -1.1091783716
H        4.3333486412   -1.3316490033    2.2269084330
H        2.8020518179   -0.0393745088   -1.5715556614
H        5.0906564378    0.6035198412   -2.2785175616
25   
Dihedral (-60,) Energy -502.554448490
C        0.7854807837    0.9356348435    0.7017110531
C       -0.2643501090    1.7312988141    0.2388590291
C       -1.1736749041    1.2212576471   -0.6973726803
C        0.9434145812   -0.3822404298    0.2401801387
C        2.0879088354   -1.2381801426    0.7546644319
C       -1.0233903146   -0.0872945577   -1.1652108675
C        5.9966175525    0.4402614893   -0.0961412319
C        5.6353494701    0.1382924987    1.2199800518
C        0.0297699280   -0.8829627902   -0.6978110391
C        4.3734742845   -0.4029791402    1.4946344622
C        3.4586004380   -0.6497204549    0.4616224245
C        3.8301739900   -0.3379235535   -0.8571128815
C        5.0884309934    0.2001203135   -1.1357230442
H        1.4991115528    1.3364549633    1.4152491204
H       -0.3736417833    2.7474675037    0.6042001981
H       -1.9888048422    1.8399664825   -1.0581048070
H        1.9859129690   -1.3808576776    1.8380111401
H        2.0139460343   -2.2362282838    0.3034193058
H       -1.7220453665   -0.4894795946   -1.8919675202
H        6.9733825421    0.8608637692   -0.3116380938
H        6.3308083743    0.3243001858    2.0322418770
H        0.1427276750   -1.9003899001   -1.0615985110
H        4.0959048250   -0.6365731459    2.5185928416
H        3.1215489258   -0.5078501476   -1.6619136546
H        5.3606099152    0.4350699083   -2.1598362910
25   
Dihedral (-50,) Energy -502.554541580
C        0.8750667151    0.9547956515    0.5589306472
C       -0.1898541770    1.7511265507    0.1319009244
C       -1.1989460673    1.2059576568   -0.6726167068
C        0.9480538511   -0.4001237386    0.1939549908
C        2.1004159312   -1.2666837693    0.6758630150
C       -1.1327392334   -0.1396480507   -1.0459760396
C        6.0039876446    0.4883129495   -0.0213046102
C        5.6169258950    0.1356347997    1.2746113699
C       -0.0644759287   -0.9351890690   -0.6149916100
C        4.3559768517   -0.4299659944    1.5006982027
C        3.4679746767   -0.6507928206    0.4386710803
C        3.8654175817   -0.2882084767   -0.8596911718
C        5.1226527312    0.2743260802   -1.0894173001
H        1.6643433531    1.3826413381    1.1690944395
H       -0.2322956764    2.7961207068    0.4221749603
H       -2.0245576074    1.8258305976   -1.0065798924
H        1.9840946282   -1.4690453197    1.7491007389
H        2.0435541173   -2.2411332107    0.1733191394
H       -1.9068908009   -0.5695991820   -1.6735871148
H        6.9801300791    0.9273828158   -0.1995277510
H        6.2915085551    0.3005572211    2.1087202473
H       -0.0147073193   -1.9798503233   -0.9089315885
H        4.0582292769   -0.7030344508    2.5090810701
H        3.1781176543   -0.4393316897   -1.6865062850
H        5.4152838567    0.5482281729   -2.0980551045
25   
Dihedral (-40,) Energy -502.554393050
C        0.9020286772    0.9213780799    0.3715166362
C       -0.2381760092    1.6203251956   -0.0341971424
C       -1.3157857668    0.9380522214   -0.6119048301
C        0.9827283829   -0.4715712096    0.2107083698
C        2.2059036729   -1.2441247453    0.6819193643
C       -1.2421463713   -0.4482064544   -0.7820383719
C        5.9907858095    0.7253289368   -0.0836106292
C        5.6373478124    0.3698420624    1.2211257259
C       -0.0994827690   -1.1453862441   -0.3750083457
C        4.4125040541   -0.2621752157    1.4683509085
C        3.5279136278   -0.5481437416    0.4191096868
C        3.8910231682   -0.1823727515   -0.8887059071
C        5.1120433647    0.4474339551   -1.1389963705
H        1.7411675589    1.4546589717    0.8058601367
H       -0.2846113873    2.6968178825    0.0966922981
H       -2.1994999328    1.4816167658   -0.9297804675
H        2.1182524643   -1.4391878895    1.7599246528
H        2.2054601326   -2.2290859174    0.1962053522
H       -2.0690816101   -0.9856933121   -1.2352357842
H        6.9389877185    1.2156741137   -0.2783245789
H        6.3098648150    0.5838972706    2.0456329266
H       -0.0452950527   -2.2217106221   -0.5132186650
H        4.1404561751   -0.5367675648    2.4835310557
H        3.2060912402   -0.3852688623   -1.7062814041
H        5.3787862463    0.7229763612   -2.1543332759
25   
Dihedral (-30,) Energy -502.554238220
C        0.8956222695    0.7892710179    0.1881278763
C       -0.2834931000    1.4308676037   -0.2046151336
C       -1.3393454421    0.6948452393   -0.7533701393
C        1.0363110182   -0.5994488253    0.0410750760
C        2.2969391531   -1.3253697704    0.4969135772
C       -1.2066878685   -0.6895175208   -0.9084793631
C        5.8986435727    1.0744687127    0.2861201364
C        5.3925960534    0.6786867894    1.5276547812
C       -0.0265651141   -1.3283418219   -0.5159905386
C        4.2315159265   -0.1009263384    1.5957054081
C        3.5625712586   -0.4956923965    0.4285389821
C        4.0782811884   -0.0892923892   -0.8143601069
C        5.2365551840    0.6875952811   -0.8865548866
H        1.7148523637    1.3663339870    0.6026899658
H       -0.3755196824    2.5057575630   -0.0850485098
H       -2.2523823239    1.1941034966   -1.0608916852
H        2.1553006027   -1.6725638532    1.5301334564
H        2.4156698117   -2.2311052228   -0.1120903287
H       -2.0169447047   -1.2693816197   -1.3390729318
H        6.7982322612    1.6786178077    0.2302394227
H        5.8979797199    0.9748079544    2.4413215591
H        0.0738322151   -2.4027950934   -0.6434061649
H        3.8399761037   -0.4061370335    2.5618350366
H        3.5598577107   -0.3783605854   -1.7236763147
H        5.6234727915    0.9918837340   -1.8538610908
25   
Dihedral (-20,) Energy -502.553989140
C        0.9447545186    0.7817991710    0.0599578956
C       -0.2500705415    1.4251735036   -0.2827597762
C       -1.3574911349    0.6832225088   -0.7050577228
C        1.0482730624   -0.6151444238   -0.0111536711
C        2.3260860645   -1.3521512845    0.3798072522
C       -1.2619389503   -0.7113894662   -0.7834187083
C        5.8808552834    1.1210505622    0.3779335395
C        5.3138194715    0.7122205295    1.5888380893
C       -0.0681274662   -1.3518726463   -0.4413880012
C        4.1689465808   -0.0933391882    1.5893743507
C        3.5774905869   -0.5011518459    0.3849838444
C        4.1543555854   -0.0815520816   -0.8260260556
C        5.2970483371    0.7217340572   -0.8312506541
H        1.8007959187    1.3650802985    0.3793986884
H       -0.3124804560    2.5071424583   -0.2223031215
H       -2.2820729528    1.1837104244   -0.9736601572
H        2.1893195124   -1.7906374841    1.3784984952
H        2.4607834682   -2.1998744997   -0.3049014076
H       -2.1131320217   -1.2974208539   -1.1155078517
H        6.7687476239    1.7447093531    0.3743512773
H        5.7600084947    1.0173527532    2.5299553144
H        0.0023881630   -2.4342451568   -0.5095080983
H        3.7292684856   -0.4089045728    2.5311332647
H        3.6970196172   -0.3827783852   -1.7638598664
H        5.7326229064    1.0355731053   -1.7744981242
25   
Dihedral (-10,) Energy -502.553728990
C        0.9979474627    0.8013235202    0.0143278494
C       -0.2135581697    1.4735303680   -0.1888996609
C       -1.3964164761    0.7552163928   -0.3838449299
C        1.0430506751   -0.5998996294    0.0257692843
C        2.3382258881   -1.3747845333    0.2607651470
C       -1.3614615402   -0.6449898642   -0.3754156510
C        5.9047605717    1.0801824894    0.2008413756
C        5.3290133550    0.7089490067    1.4204140949
C       -0.1517701311   -1.3132336474   -0.1738219018
C        4.1831140066   -0.0938488803    1.4390715974
C        3.5977543532   -0.5378947978    0.2438304785
C        4.1832582198   -0.1569958774   -0.9749964495
C        5.3278401229    0.6445874254   -0.9984352949
H        1.9105293337    1.3669309800    0.1613610018
H       -0.2294186701    2.5588668778   -0.1955491989
H       -2.3344793574    1.2770889997   -0.5424176633
H        2.2642324983   -1.8950270326    1.2258791898
H        2.4137052569   -2.1625985498   -0.5007682222
H       -2.2736354482   -1.2131065367   -0.5285273270
H        6.7940508540    1.7016421072    0.1839036471
H        5.7706252994    1.0415961230    2.3543257198
H       -0.1293718099   -2.3999187564   -0.1714146416
H        3.7360897435   -0.3785738843    2.3871350867
H        3.7332905749   -0.4884896327   -1.9062496827
H        5.7698937144    0.9277527004   -1.9483458389
25   
Dihedral (0,) Energy -502.553714800
C        1.0168389591    0.8019940468   -0.0647999781
C       -0.2004636064    1.4874735821   -0.1644752714
C       -1.4077996341    0.7841099663   -0.1868528797
C        1.0430093465   -0.5972220058    0.0132772658
C        2.3451300610   -1.3895139010    0.1223766350
C       -1.3922094206   -0.6144123875   -0.1085424571
C        5.9073468827    1.0709517793    0.1683172080
C        5.2698196492    0.7334390381    1.3676441803
C       -0.1771853937   -1.2955359186   -0.0095829426
C        4.1272049840   -0.0725213120    1.3511492052
C        3.6049615863   -0.5539956770    0.1400460674
C        4.2521229760   -0.2079427026   -1.0567568237
C        5.3951836624    0.5976211663   -1.0450712226
H        1.9483560315    1.3550886096   -0.0480057310
H       -0.2016447370    2.5712540256   -0.2246874150
H       -2.3503858972    1.3161383480   -0.2639039767
H        2.3035155809   -2.0028008614    1.0328860905
H        2.3909970527   -2.0980408470   -0.7159148888
H       -2.3240848145   -1.1708640526   -0.1248446998
H        6.7947597681    1.6952130214    0.1793136932
H        5.6620716982    1.0953805131    2.3126329295
H       -0.1702168453   -2.3807510584    0.0509289329
H        3.6311086456   -0.3296578500    2.2825292305
H        3.8536293132   -0.5708019096   -1.9997496971
H        5.8852053293    0.8537019995   -1.9789758491
25   
Dihedral (10,) Energy -502.553783510
C        1.0211782360    0.8025447277   -0.1730208620
C       -0.1929200197    1.4998241207   -0.1981428361
C       -1.4042728709    0.8136318624   -0.0755366666
C        1.0405090296   -0.5915100322   -0.0256224088
C        2.3403023382   -1.3938877791   -0.0130035701
C       -1.3953782432   -0.5789417029    0.0743436675
C        5.9098892632    1.0462416585    0.2167777668
C        5.1983246737    0.7267170590    1.3795861610
C       -0.1830699389   -1.2720766733    0.1000980747
C        4.0536963068   -0.0716529857    1.3032531075
C        3.6022089074   -0.5644778054    0.0676735560
C        4.3230483418   -0.2373441307   -1.0908355776
C        5.4692750140    0.5619118990   -1.0193492438
H        1.9561684015    1.3425963823   -0.2644005510
H       -0.1887823558    2.5792236215   -0.3125948494
H       -2.3446166785    1.3548305864   -0.0935889459
H        2.3079254126   -2.0937790269    0.8326779306
H        2.3753729374   -2.0163789625   -0.9179821934
H       -2.3302484590   -1.1215742383    0.1734483885
H        6.7989700168    1.6655251865    0.2747142469
H        5.5351986051    1.0978052560    2.3422358092
H       -0.1811905130   -2.3523401704    0.2199221503
H        3.4990169483   -0.3129910852    2.2052882015
H        3.9806478106   -0.6097319928   -2.0519883412
H        6.0160182072    0.8041398936   -1.9250148566
25   
Dihedral (20,) Energy -502.553962480
C        1.0029710557    0.7766620315   -0.3358386278
C       -0.2028035660    1.4870972729   -0.3188993367
C       -1.3946567510    0.8466359615    0.0337573743
C        1.0340401097   -0.5857819624   -0.0033438652
C        2.3260086782   -1.3978004336   -0.0355491482
C       -1.3741223059   -0.5120086689    0.3712590244
C        5.9185762807    1.0149641423    0.1346802339
C        5.1495077632    0.8091724720    1.2872138007
C       -0.1685806557   -1.2183166239    0.3541775560
C        3.9968404790    0.0221824180    1.2291541718
C        3.5941836167   -0.5743986651    0.0222257411
C        4.3711869887   -0.3611903412   -1.1258069301
C        5.5261808237    0.4278823066   -1.0722145783
H        1.9237248138    1.2820723611   -0.6040495242
H       -0.2080842442    2.5411283265   -0.5783060218
H       -2.3285039757    1.3989739979    0.0501567559
H        2.3096688791   -2.1082754883    0.8012873084
H        2.3377236694   -2.0084299136   -0.9494822260
H       -2.2926262964   -1.0175328306    0.6524980589
H        6.8138682235    1.6263844809    0.1788499985
H        5.4484034300    1.2611041265    2.2275958989
H       -0.1567943564   -2.2713196736    0.6229182634
H        3.3962937607   -0.1283371887    2.1214436133
H        4.0676216425   -0.8144561684   -2.0650683927
H        6.1166442941    0.5818914000   -1.9697195697
25   
Dihedral (30,) Energy -502.554234150
C        0.9498473716    0.7243066802   -0.4706359176
C       -0.2594766701    1.4235045365   -0.4007550312
C       -1.3993017634    0.8084026853    0.1283856211
C        1.0385632875   -0.6010353401   -0.0169350095
C        2.3370848023   -1.3937815096   -0.1147996716
C       -1.3205608512   -0.5106541125    0.5888538492
C        5.9106187146    1.0432234386    0.1352878913
C        5.0827793748    0.8827727744    1.2542609461
C       -0.1098840645   -1.2064356798    0.5178926623
C        3.9344182826    0.0926687140    1.1697807625
C        3.5946975920   -0.5537046129   -0.0312034631
C        4.4289909608   -0.3849869284   -1.1454133089
C        5.5803088322    0.4078756654   -1.0652521813
H        1.8331681849    1.2099966262   -0.8704832684
H       -0.3096074808    2.4480932145   -0.7555540765
H       -2.3366691212    1.3519135189    0.1864494070
H        2.3443169176   -2.1486576990    0.6821869728
H        2.3447019946   -1.9527623364   -1.0612071901
H       -2.1974219291   -0.9943939423    1.0075299365
H        6.8023991612    1.6578618196    0.2007811435
H        5.3330965327    1.3732621978    2.1894969280
H       -0.0524028399   -2.2283873262    0.8827441761
H        3.2878548560   -0.0211110029    2.0348310475
H        4.1746142802   -0.8768897511   -2.0798799699
H        6.2151366696    0.5272214809   -1.9374235301
25   
Dihedral (40,) Energy -502.554420480
C        0.9171772897    0.7316383950   -0.5890943769
C       -0.2555040305    1.4777062590   -0.4434502431
C       -1.3496110232    0.9416675921    0.2464652109
C        1.0149326423   -0.5624998221   -0.0521456464
C        2.2792827540   -1.3914890148   -0.2321010346
C       -1.2614111542   -0.3441379236    0.7896974278
C        5.9331775530    0.9075506595    0.1634090547
C        5.0554039066    0.7804511651    1.2482700085
C       -0.0855290819   -1.0877880652    0.6416310925
C        3.8811463937    0.0367308134    1.1157232651
C        3.5637409401   -0.5964617890   -0.0983675537
C        4.4474917228   -0.4614809991   -1.1781336500