25   
Dihedral (-170,) Energy -502.553772856
C        0.2105218850    0.2489682038   -1.8211825241
C       -1.1346344833    0.2371347250   -1.4457201178
C       -1.4847043520    0.2191947434   -0.0896857399
C        1.2293183303    0.2434217074   -0.8526820062
C        2.6850083722    0.2887842283   -1.3124940985
C       -0.4785311915    0.2131627660    0.8803628375
C        5.5665458263   -0.4269846127    1.8393270794
C        5.2674175755    0.8818871749    1.4467368898
C        0.8696761215    0.2255355815    0.5023825826
C        4.3438191345    1.1119731289    0.4211467374
C        3.7081310752    0.0419622679   -0.2267368464
C        4.0142978472   -1.2677904227    0.1782362985
C        4.9365452154   -1.5027437729    1.2016571555
H        0.4771949299    0.2605399966   -2.8748307372
H       -1.9079720341    0.2394610240   -2.2074027159
H       -2.5291878123    0.2083774154    0.2041998547
H        2.8186262270   -0.4482577950   -2.1155991838
H        2.8755845175    1.2698162613   -1.7697532321
H       -0.7392241512    0.1980282742    1.9339428500
H        6.2838433627   -0.6080701180    2.6330507769
H        5.7522237131    1.7209144695    1.9354878415
H        1.6435886709    0.2179894491    1.2610351770
H        4.1117514779    2.1290816326    0.1188373714
H        3.5229047612   -2.1032004808   -0.3119026410
H        5.1645360848   -2.5208893282    1.5005207859
25   
Dihedral (-160,) Energy -502.554044734
C        0.2188816128    0.1381120569   -1.8080182249
C       -1.1248633018    0.0374126865   -1.4379442492
C       -1.4850668773    0.0844379686   -0.0859104003
C        1.2247106065    0.2875543848   -0.8386183010
C        2.6762802098    0.4446041528   -1.2819377164
C       -0.4913746744    0.2331900003    0.8866734011
C        5.5795673413   -0.4799197813    1.7967280041
C        5.3599069396    0.8478253436    1.4175347359
C        0.8535616891    0.3344619090    0.5133896177
C        4.4272699612    1.1464781555    0.4171012676
C        3.7038571152    0.1263547386   -0.2173322025
C        3.9299545592   -1.2041892459    0.1745889267
C        4.8605702399   -1.5067807950    1.1714285122
H        0.4937586942    0.0974019482   -2.8586643667
H       -1.8877354527   -0.0816299313   -2.2008660918
H       -2.5274414016    0.0031511407    0.2043938413
H        2.8434338382   -0.1944350104   -2.1590717695
H        2.8288931649    1.4768699226   -1.6273993273
H       -0.7603607371    0.2690824003    1.9376408232
H        6.3027117358   -0.7143355813    2.5709767563
H        5.9120579680    1.6495594970    1.8973247090
H        1.6191432544    0.4442981524    1.2730300004
H        4.2579083733    2.1788715962    0.1250995295
H        3.3659293459   -2.0004120903   -0.3021317661
H        5.0257265583   -2.5396667858    1.4609198633
25   
Dihedral (-150,) Energy -502.554283444
C        0.2239377149   -0.0265787135   -1.7608482173
C       -1.1102535860   -0.1964696131   -1.3782471791
C       -1.4807374769   -0.0342010886   -0.0386691341
C        1.2068252065    0.3093315331   -0.8165036771
C        2.6452636402    0.5369422417   -1.2654319773
C       -0.5080409244    0.2982817315    0.9106586797
C        5.6145098407   -0.4744903562    1.7262590727
C        5.4504214830    0.8542112824    1.3241552265
C        0.8253318874    0.4688277617    0.5249883108
C        4.4943644013    1.1809668357    0.3545782146
C        3.6914315824    0.1891483568   -0.2258911921
C        3.8622727578   -1.1427759899    0.1891476925
C        4.8156092631   -1.4736407880    1.1546402627
H        0.5080916108   -0.1581461840   -2.8013809423
H       -1.8560674991   -0.4594681587   -2.1217011598
H       -2.5145857660   -0.1693910409    0.2618648123
H        2.8219403744   -0.0486109153   -2.1773017798
H        2.7674462505    1.5903391261   -1.5541726163
H       -0.7857957190    0.4226213889    1.9525532211
H        6.3546955821   -0.7310934171    2.4770424001
H        6.0630746261    1.6355206936    1.7624775681
H        1.5770738052    0.7167939099    1.2663435155
H        4.3684132727    2.2145145301    0.0452498129
H        3.2356545168   -1.9169664411   -0.2433713133
H        4.9364030296   -2.5073706691    1.4624938360
25   
Dihedral (-140,) Energy -502.554482502
C        0.1081458186    0.8137239530    1.4171866331
C       -1.1789416911    0.8199203645    0.8683089013
C       -1.4610940556    0.0500400938   -0.2645949612
C        1.1297911601    0.0406439792    0.8458083907
C        2.5160663590    0.0091460277    1.4727408345
C       -0.4476307840   -0.7235186088   -0.8437633046
C        5.7558047389    0.0710781792   -1.4060776144
C        5.6407257015   -0.9922547829   -0.5061115840
C        0.8368676190   -0.7267816072   -0.2936502450
C        4.5938506662   -1.0136869045    0.4237078417
C        3.6524214659    0.0239701969    0.4680923507
C        3.7747269843    1.0857910383   -0.4449077520
C        4.8176640828    1.1114433491   -1.3728729941
H        0.3241078995    1.4162803812    2.2951095572
H       -1.9560394537    1.4274234899    1.3212760959
H       -2.4574253144    0.0551557334   -0.6944087936
H        2.6119971821    0.8662769045    2.1525232039
H        2.6085712504   -0.8872647320    2.1016585650
H       -0.6575103148   -1.3211172757   -1.7252111255
H        6.5654099667    0.0902924673   -2.1282343088
H        6.3606876029   -1.8041127786   -0.5272088649
H        1.6239034239   -1.3161757177   -0.7524703138
H        4.5056137135   -1.8416111145    1.1212228019
H        3.0400031870    1.8848717164   -0.4286279459
H        4.8995508254    1.9387725146   -2.0705567607
25   
Dihedral (-130,) Energy -502.554580688
C        0.1614669328    0.9508942570    1.2915103363
C       -1.1047514463    1.0287958918    0.6994610248
C       -1.4333572309    0.1789795553   -0.3608951897
C        1.1130494355    0.0269589085    0.8368765503
C        2.4823160147   -0.0698793341    1.4898305157
C       -0.4883441772   -0.7452878879   -0.8250451093
C        5.7712746012    0.0435832192   -1.3327058069
C        5.6573412231   -1.0204552632   -0.4333972779
C        0.7742849797   -0.8189688577   -0.2328103246
C        4.5938422864   -1.0584429183    0.4766742490
C        3.6344787156   -0.0365915129    0.5010224079
C        3.7550194935    1.0260833919   -0.4109428987
C        4.8151270895    1.0678062116   -1.3186921482
H        0.4156200263    1.6138479308    2.1136640835
H       -1.8278344850    1.7521235255    1.0627784911
H       -2.4128327459    0.2373975688   -0.8241919001
H        2.5885410383    0.7530678353    2.2090647096
H        2.5445792499   -0.9967015872    2.0759226833
H       -0.7356198551   -1.4050797044   -1.6506096303
H        6.5934923568    0.0753189161   -2.0400360812
H        6.3907620004   -1.8204500163   -0.4402681870
H        1.5110163283   -1.5242399973   -0.6043044127
H        4.5063965440   -1.8869568408    1.1736971496
H        3.0056182082    1.8114572948   -0.4110214548
H        4.8957828133    1.8950449214   -2.0166433069
25   
Dihedral (-120,) Energy -502.554583551
C        0.2549920996    1.0743779179    1.1921915564
C       -0.9925861587    1.2290498709    0.5752097453
C       -1.4067485974    0.3219698206   -0.4042490603
C        1.1028281200    0.0149332431    0.8404004372
C        2.4619772727   -0.1539440918    1.4960651637
C       -0.5656199523   -0.7392512481   -0.7647958369
C        5.7732421766    0.0109346531   -1.3013997639
C        5.6779097632   -1.0451481017   -0.3903483482
C        0.6787032482   -0.8884100709   -0.1491723050
C        4.6062412774   -1.1007585076    0.5088022472
C        3.6196066113   -0.1046479990    0.5112920887
C        3.7219947092    0.9496777916   -0.4119910441
C        4.7903131949    1.0092227794   -1.3094595820
H        0.5739764720    1.7804036254    1.9535979622
H       -1.6359446884    2.0559825983    0.8584648684
H       -2.3726785327    0.4393718337   -0.8844357220
H        2.5907685820    0.6305696575    2.2538357693
H        2.4971070147   -1.1091593580    2.0358077084
H       -0.8795111154   -1.4458589780   -1.5264655011
H        6.6014524878    0.0557463971   -2.0010007864
H        6.4319734506   -1.8257090073   -0.3804059086
H        1.3367817062   -1.7013263417   -0.4404657608
H        4.5332658477   -1.9234114473    1.2144122086
H        2.9515610096    1.7140028209   -0.4299645695
H        4.8556629262    1.8296857243   -2.0169864087
25   
Dihedral (-110,) Energy -502.554449197
C        0.3426462920    1.1456544638    1.0876848349
C       -0.8911296617    1.3481216010    0.4571763394
C       -1.3899172698    0.3901510409   -0.4302072526
C        1.0917695171   -0.0139008925    0.8418228907
C        2.4460124768   -0.2252681251    1.4916751858
C       -0.6478168829   -0.7708319882   -0.6846305279
C        5.7809233112    0.0339422264   -1.2741138905
C        5.7042914098   -1.0230238832   -0.3620732485
C        0.5830174645   -0.9681648441   -0.0554688604
C        4.6236778775   -1.1077401017    0.5234331953
C        3.6086484687   -0.1401343641    0.5122993486
C        3.6919483245    0.9147202874   -0.4117125214
C        4.7698425735    1.0030491033   -1.2959454205
H        0.7261963074    1.8905386585    1.7791315320
H       -1.4589789179    2.2506468205    0.6595625712
H       -2.3458106405    0.5441543817   -0.9199671788
H        2.5827945512    0.5230021141    2.2842698451
H        2.4726615408   -1.2041418677    1.9862441119
H       -1.0285253166   -1.5183713844   -1.3732308420
H        6.6159601126    0.1011388500   -1.9637530988
H        6.4797868677   -1.7821004420   -0.3414085358
H        1.1632913294   -1.8621229026   -0.2639506565
H        4.5652913271   -1.9313953036    1.2292779228
H        2.9007415021    1.6567782398   -0.4425383081
H        4.8199470615    1.8236021597   -2.0046373283
25   
Dihedral (-100,) Energy -502.554142305
C        0.4339107162    1.2211451319    0.9391773467
C       -0.7716791157    1.4810225335    0.2768683446
C       -1.3626721328    0.4943956473   -0.5183837241
C        1.0646797004   -0.0259224067    0.8174470239
C        2.3991575718   -0.2962092479    1.4833682554
C       -0.7403225485   -0.7537949568   -0.6474037295
C        5.8164311936    0.0189347491   -1.1799415564
C        5.7258079108   -1.0379718870   -0.2687053517
C        0.4639522089   -1.0083715128    0.0130553603
C        4.6181915261   -1.1408999946    0.5802049741
C        3.5871658016   -0.1906625415    0.5341309007
C        3.6836786208    0.8637084018   -0.3884856348
C        4.7895434527    0.9691588677   -1.2361755267
H        0.8876368547    1.9890276681    1.5594500138
H       -1.2475645205    2.4506147239    0.3836290642
H       -2.2976578717    0.6934058350   -1.0317282340
H        2.5372322141    0.4127130259    2.3116337712
H        2.3949015699   -1.2964140250    1.9326190931
H       -1.1925135059   -1.5250810988   -1.2627304692
H        6.6729440840    0.0997098130   -1.8412467394
H        6.5127654221   -1.7839231529   -0.2210100897
H        0.9506906187   -1.9729030935   -0.0981599832
H        4.5506614310   -1.9652627630    1.2845179808
H        2.8820781133    1.5921711817   -0.4489623845
H        4.8482492738    1.7897115023   -1.9442290959
25   
Dihedral (-90,) Energy -502.553670810
C        0.4369027254    0.9403147275    0.9931090983
C       -0.6862954379    1.5286558596    0.4045039117
C       -1.3050761762    0.9182908186   -0.6928093751
C        0.9605977446   -0.2637145133    0.4961742954
C        2.1894747789   -0.8858641067    1.1245689774
C       -0.7965105542   -0.2853898054   -1.1925817797
C        6.0145137256    0.3017527470   -0.5650873887
C        5.9093553017   -0.0493348935    0.7854677220
C        0.3253671817   -0.8727245832   -0.5980400653
C        4.6698639558   -0.4135180290    1.3196582168
C        3.5171644841   -0.4382858493    0.5176334609
C        3.6321333121   -0.0774950027   -0.8334054494
C        4.8711184166    0.2873102857   -1.3707722352
H        0.9186572670    1.4178075656    1.8411630253
H       -1.0789261303    2.4593081785    0.8014306946
H       -2.1774495788    1.3735698111   -1.1498950482
H        2.2050255185   -0.6665847952    2.1986045922
H        2.1183876598   -1.9800838658    1.0382645092
H       -1.2748571440   -0.7688743715   -2.0382983482
H        6.9744378898    0.5877257557   -0.9824557610
H        6.7882287900   -0.0342476271    1.4223215880
H        0.7118290677   -1.8130907329   -0.9805644343
H        4.5933853948   -0.6814499763    2.3700153046
H        2.7490085120   -0.0707981268   -1.4622373025
H        4.9409273554    0.5650179824   -2.4178296609
25   
Dihedral (-80,) Energy -502.554074712
C        0.5240456247    0.9100737494    0.9002034091
C       -0.5888970749    1.5245817575    0.3204817791
C       -1.2800971358    0.8921158773   -0.7205625839
C        0.9640468805   -0.3462037073    0.4520564817
C        2.1904175850   -0.9930097079    1.0627158916
C       -0.8517515623   -0.3596903630   -1.1732721181
C        5.9884043844    0.4604061149   -0.4641754865
C        5.8443598963    0.1450818637    0.8909828224
C        0.2612601816   -0.9737331498   -0.5874741063
C        4.6136022767   -0.3079134536    1.3775016768
C        3.5115830525   -0.4569068200    0.5214769952
C        3.6647157037   -0.1316989525   -0.8355769223
C        4.8933334836    0.3213465668   -1.3248560716
H        1.0633213983    1.4066815881    1.7014704656
H       -0.9178489771    2.4945984972    0.6793002770
H       -2.1443097104    1.3693556316   -1.1707875376
H        2.1777249632   -0.8596947725    2.1510149275
H        2.1475087786   -2.0771421794    0.8862196969
H       -1.3834998546   -0.8594877178   -1.9765725662
H        6.9408576210    0.8147588286   -0.8445962122
H        6.6850484193    0.2558998632    1.5685870251
H        0.5880774856   -1.9493170274   -0.9359418942
H        4.5056144550   -0.5491067675    2.4314228708
H        2.8153438253   -0.2228541651   -1.5040941659
H        4.9944027115    0.5701555707   -2.3765856766
25   
Dihedral (-70,) Energy -502.554311302
C        0.5943891507    0.9205789840    0.6846350497
C       -0.5080709400    1.5157996561    0.0676975754
C       -1.2597646036    0.8003079395   -0.8736995364
C        0.9636547706   -0.3991968769    0.3742922387
C        2.1750063443   -1.0277156912    1.0343990208
C       -0.9003998457   -0.5127918140   -1.1909011383
C        5.9840454207    0.5959023004   -0.2717224777
C        5.7636136940    0.3126966185    1.0799587631
C        0.2041312370   -1.1069346458   -0.5683247981
C        4.5301917228   -0.1996706003    1.4969993823
C        3.5021220427   -0.4393138835    0.5730805127
C        3.7307203451   -0.1470522239   -0.7814085927
C        4.9619527523    0.3643482404   -1.2003203359
H        1.1827441267    1.4806806538    1.4054859812
H       -0.7821567542    2.5354289205    0.3190269430
H       -2.1161947449    1.2631439847   -1.3529352626
H        2.1026439066   -0.9176707557    2.1235685381
H        2.1694224842   -2.1082715116    0.8349194647
H       -1.4770534971   -1.0749673572   -1.9184892397
H        6.9384169412    0.9962544097   -0.5978961167
H        6.5468358686    0.4943833875    1.8091172805
H        0.4796524149   -2.1285215017   -0.8142787752
H        4.3621985958   -0.4151425320    2.5485782682
H        2.9363691321   -0.3104793695   -1.5023201746
H        5.1227957646    0.5865018001   -2.2505237318
25   
Dihedral (-60,) Energy -502.554452766
C        0.7932326662    0.9743512970    0.6769615750
C       -0.2473144780    1.7704124537    0.1941895871
C       -1.1627441057    1.2484749050   -0.7294894880
C        0.9366010335   -0.3564216734    0.2487663381
C        2.0704323258   -1.2131394399    0.7839583304
C       -1.0270479783   -0.0729345830   -1.1645584085
C        6.0076141103    0.3803077076   -0.1006992715
C        5.6624898084    0.0543437560    1.2140900269
C        0.0170176147   -0.8686315669   -0.6770318002
C        4.3907689018   -0.4572431418    1.4991656962
C        3.4496188721   -0.6509219842    0.4782299546
C        3.8047105844   -0.3157048390   -0.8392727129
C        5.0729565155    0.1931908107   -1.1274942975
H        1.5111127242    1.3844508807    1.3808568498
H       -0.3448741684    2.7964227789    0.5345051932
H       -1.9706215174    1.8674602540   -1.1057700939
H        1.9671057063   -1.3272632681    1.8706178851
H        1.9835509713   -2.2219633855    0.3590845447
H       -1.7300049119   -0.4850039864   -1.8815643588
H        6.9917481670    0.7788184788   -0.3245059637
H        6.3779005938    0.1997299710    2.0172647590
H        0.1186938217   -1.8956936732   -1.0161185309
H        4.1254411498   -0.7081864247    2.5222920994
H        3.0765525711   -0.4439619513   -1.6342235983
H        5.3323246386    0.4474035849   -2.1503131180
25   
Dihedral (-50,) Energy -502.554540209
C        0.8805834343    0.9760636793    0.5361317867
C       -0.1762044613    1.7728830956    0.0902516719
C       -1.1868724839    1.2209601602   -0.7076764456
C        0.9438518485   -0.3859949930    0.1967609694
C        2.0872275750   -1.2527242292    0.6992225190
C       -1.1303754046   -0.1319202687   -1.0554643573
C        6.0082019056    0.4560686728   -0.0149615026
C        5.6138133227    0.1293086060    1.2855479807
C       -0.0702150026   -0.9278929375   -0.6057238503
C        4.3472006923   -0.4212083973    1.5170510750
C        3.4607289803   -0.6525808113    0.4559903131
C        3.8655578765   -0.3159810929   -0.8470813411
C        5.1284778013    0.2314163264   -1.0821982848
H        1.6710955297    1.4088738668    1.1411857106
H       -0.2111315662    2.8234572682    0.3607313266
H       -2.0061500013    1.8411487573   -1.0563215009
H        1.9651209075   -1.4341121918    1.7755550992
H        2.0243077885   -2.2358345158    0.2146217073
H       -1.9058534148   -0.5672779766   -1.6776929794
H        6.9887606911    0.8834165773   -0.1973773424
H        6.2871014810    0.3027545891    2.1189726096
H       -0.0281219764   -1.9783141475   -0.8797112576
H        4.0437330124   -0.6740519585    2.5289995174
H        3.1795642179   -0.4752685475   -1.6734382258
H        5.4268630548    0.4851078744   -2.0944343529
25   
Dihedral (-40,) Energy -502.554395730
C        0.9568341920    0.9740114757    0.3961641567
C       -0.1163080358    1.7747970832   -0.0038714940
C       -1.2111377712    1.2067436010   -0.6665587397
C        0.9512543378   -0.4081360714    0.1462707833
C        2.1045394027   -1.2898947966    0.6034271517
C       -1.2233803364   -0.1674049721   -0.9267018057
C        6.0090540238    0.5172367685    0.0640682293
C        5.5677060339    0.1769769395    1.3458716177
C       -0.1477733199   -0.9662893381   -0.5236057589
C        4.3074122944   -0.4079087027    1.5216965894
C        3.4730158991   -0.6609161015    0.4240075302
C        3.9257945845   -0.3106986065   -0.8596738440
C        5.1822807842    0.2710685426   -1.0402385765
H        1.8111584801    1.4192977024    0.8953298753
H       -0.0966483578    2.8413302362    0.1968800016
H       -2.0422725389    1.8296494435   -0.9806550457
H        1.9682017860   -1.5453270065    1.6635183995
H        2.0595289639   -2.2397410512    0.0546358165
H       -2.0638973366   -0.6158756336   -1.4468429902
H        6.9849469121    0.9705559893   -0.0757294530
H        6.1998551178    0.3658295638    2.2076745670
H       -0.1587039326   -2.0324973880   -0.7324476770
H        3.9676291573   -0.6710598377    2.5192890290
H        3.2808615334   -0.4876367597   -1.7150769110
H        5.5173127018    0.5341865299   -2.0384905074
25   
Dihedral (-30,) Energy -502.554242350
C        0.8833261789    0.7722407227    0.1596651483
C       -0.2925718615    1.4054045254   -0.2558093663
C       -1.3250520263    0.6621942198   -0.8382068087
C        1.0446454013   -0.6131293109    0.0023561663
C        2.3012708724   -1.3303096485    0.4828513370
C       -1.1727232196   -0.7189145594   -1.0042586650
C        5.8786479513    1.1126059609    0.3883913647
C        5.3405640342    0.7068206698    1.6131462705
C        0.0046457767   -1.3481660759   -0.5887303317
C        4.1876068942   -0.0870564597    1.6436219889
C        3.5587189077   -0.4860203142    0.4557184152
C        4.1067036529   -0.0692367000   -0.7697366490
C        5.2571343038    0.7217662878   -0.8049826251
H        1.6849746865    1.3543140822    0.6006785083
H       -0.4001935626    2.4778734827   -0.1276096132
H       -2.2359857358    1.1538874813   -1.1635824904
H        2.1370484694   -1.6905646633    1.5082108270
H        2.4458713068   -2.2275179040   -0.1330101907
H       -1.9651062109   -1.3033697335   -1.4611304850
H        6.7720855734    1.7277437139    0.3614793154
H        5.8147347378    1.0059163347    2.5424625735
H        0.1210158960   -2.4199311645   -0.7247976204
H        3.7710265646   -0.4003278538    2.5966082914
H        3.6195471736   -0.3617298392   -1.6951091198
H        5.6693385748    1.0338089514   -1.7592897216
25   
Dihedral (-20,) Energy -502.553995403
C        0.9380346568    0.7729619156    0.0399687744
C       -0.2540614633    1.4109559328   -0.3217187689
C       -1.3463921673    0.6635466053   -0.7726669725
C        1.0539583912   -0.6226206511   -0.0401560989
C        2.3288720390   -1.3543187276    0.3699326791
C       -1.2389143962   -0.7296036881   -0.8606285920
C        5.8668862178    1.1431312652    0.4571169700
C        5.2743259593    0.7265532508    1.6531640855
C       -0.0476660632   -1.3641408489   -0.4992911886
C        4.1352921557   -0.0867367691    1.6256553619
C        3.5740793664   -0.4951440659    0.4070216949
C        4.1759508202   -0.0677876393   -0.7888296175
C        5.3131824621    0.7431261263   -0.7658439158
H        1.7830894178    1.3597686568    0.3814304744
H       -0.3260185032    2.4918926196   -0.2537705160
H       -2.2690934055    1.1591840763   -1.0562433698
H        2.1754485755   -1.8025955021    1.3618034640
H        2.4825961392   -2.1951110851   -0.3193527622
H       -2.0786572642   -1.3190738154   -1.2150222949
H        6.7504399492    1.7726881359    0.4758462831
H        5.6967561424    1.0318654490    2.6051231133
H        0.0324461138   -2.4453619165   -0.5748887849
H        3.6764449136   -0.4080150361    2.5562635397
H        3.7424061261   -0.3692751747   -1.7378044986
H        5.7678689285    1.0624133483   -1.6981722823
25   
Dihedral (-10,) Energy -502.553729086
C        0.9979913427    0.8013778330    0.0145213163
C       -0.2134978959    1.4736655761   -0.1885385215
C       -1.3963966090    0.7554427209   -0.3835770248
C        1.0430313022   -0.5998482542    0.0256982980
C        2.3381804858   -1.3748358772    0.2605027567
C       -1.3615073630   -0.6447666780   -0.3754121997
C        5.9047973145    1.0800174128    0.2008956299
C        5.3290343579    0.7086448391    1.4204187636
C       -0.1518305977   -1.3130875397   -0.1739840845
C        4.1831106257   -0.0941197287    1.4389793860
C        3.5977398181   -0.5379927688    0.2436784680
C        4.1832552816   -0.1569568994   -0.9750995995
C        5.3278627565    0.6445927407   -0.9984356134
H        1.9106019899    1.3669205648    0.1616256782
H       -0.2293141294    2.5590038176   -0.1949849421
H       -2.3344412213    1.2773881592   -0.5420184948
H        2.2641992156   -1.8952563774    1.2255215127
H        2.4135988176   -2.1625075847   -0.5011835594
H       -2.2737098483   -1.2128177092   -0.5285987386
H        6.7941069111    1.7014516164    0.1840386384
H        5.7706566312    1.0411596373    2.3543725295
H       -0.1294754362   -2.3997735490   -0.1717812413
H        3.7360764718   -0.3789501192    2.3870067852
H        3.7332767075   -0.4883165636   -1.9063955486
H        5.7699251502    0.9278645459   -1.9483101874
25   
Dihedral (0,) Energy -502.553714828
C        1.0168305675    0.8020393833   -0.0646932553
C       -0.2004565542    1.4875662150   -0.1642425452
C       -1.4078053077    0.7842280398   -0.1866514756
C        1.0430005130   -0.5971861237    0.0132221096
C        2.3451073794   -1.3895189695    0.1221915586
C       -1.3922063922   -0.6143036826   -0.1084973584
C        5.9073793582    1.0708443178    0.1683548695
C        5.2698630281    0.7332053681    1.3676518173
C       -0.1772028645   -1.2954823875   -0.0096628506
C        4.1272253701   -0.0727195226    1.3510795429
C        3.6049563515   -0.5540323435    0.1399214007
C        4.2520984913   -0.2078611669   -1.0568580111
C        5.3951792055    0.5976719449   -1.0450792639
H        1.9483559885    1.3551188722   -0.0478720134
H       -0.2016156870    2.5713535919   -0.2243309108
H       -2.3503904764    1.3162734073   -0.2636024404
H        2.3035053424   -2.0029221198    1.0326210505
H        2.3909398144   -2.0979411756   -0.7161936858
H       -2.3240912777   -1.1707378202   -0.1248224612
H        6.7948094214    1.6950801547    0.1794103104
H        5.6621404083    1.0950229658    2.3126774010
H       -0.1702564356   -2.3807045444    0.0507301706
H        3.6311344652   -0.3299538219    2.2824359193
H        3.8535796504   -0.5705945767   -1.9998892480
H        5.8851937139    0.8538533672   -1.9789597024
25   
Dihedral (10,) Energy -502.553783508
C        1.0212245270    0.8025676121   -0.1728689537
C       -0.1928573981    1.4998811717   -0.1978268220
C       -1.4042396714    0.8137382539   -0.0752261620
C        1.0404989276   -0.5915048712   -0.0256441110
C        2.3402716069   -1.3939151919   -0.0131984614
C       -1.3953848073   -0.5788532514    0.0744832553
C        5.9099070921    1.0461945666    0.2167195290
C        5.1983042945    0.7265899335    1.3794838902
C       -0.1830993456   -1.2720360151    0.1000744420
C        4.0536702994   -0.0717704149    1.3031183874
C        3.6021933096   -0.5645297551    0.0675117679
C        4.3230424121   -0.2373371199   -1.0909719495
C        5.4692703234    0.5619157470   -1.0194190634
H        1.9562299623    1.3425941181   -0.2642448625
H       -0.1886849477    2.5792941378   -0.3121458408
H       -2.3445609099    1.3549812621   -0.0931499091
H        2.3079201022   -2.0939185394    0.8323893655
H        2.3752901258   -2.0162822877   -0.9182651119
H       -2.3302683041   -1.1214635869    0.1735838897
H        6.7989906489    1.6654720120    0.2746971020
H        5.5351673727    1.0976225028    2.3421582980
H       -0.1812544489   -2.3523140592    0.2197649312
H        3.4989833433   -0.3131508808    2.2051369873
H        3.9806453481   -0.6096662960   -2.0521481157
H        6.0160143027    0.8041899096   -1.9250712942
25   
Dihedral (20,) Energy -502.553962442
C        1.0030251996    0.7767608342   -0.3358156340
C       -0.2027111413    1.4872605860   -0.3188648663
C       -1.3946007389    0.8467936348    0.0336575646
C        1.0340159848   -0.5857212202   -0.0034711158
C        2.3259471906   -1.3977993682   -0.0357009318
C       -1.3741705996   -0.5118899236    0.3710124208
C        5.9185974483    1.0147937705    0.1349590818
C        5.1495418996    0.8088266631    1.2874698147
C       -0.1686541825   -1.2182392431    0.3539148783
C        3.9968491436    0.0218851865    1.2292620412
C        3.5941569280   -0.5744610958    0.0222295597
C        4.3711622504   -0.3610690384   -1.1257681404
C        5.5261845450    0.4279520184   -1.0720474216
H        1.9238190640    1.2821554264   -0.6039182956
H       -0.2079328276    2.5413216603   -0.5781525152
H       -2.3284236841    1.3991715000    0.0500676753
H        2.3095412472   -2.1083606220    0.8010619188
H        2.3376687875   -2.0083323205   -0.9496973317
H       -2.2927156996   -1.0174002644    0.6521433233
H        6.8139101723    1.6261747931    0.1792332511
H        5.4484617379    1.2605759273    2.2279325185
H       -0.1569247360   -2.2712722694    0.6225400834
H        3.3963034628   -0.1287789697    2.1215272573
H        4.0675729939   -0.8141542590   -2.0651086041
H        6.1166487702    0.5821059652   -1.9695276998
25   
Dihedral (30,) Energy -502.554234293
C        0.9498649379    0.7243043096   -0.4706205468
C       -0.2594600269    1.4234985049   -0.4007316290
C       -1.3992961309    0.8084030053    0.1283921571
C        1.0385548089   -0.6010443089   -0.0169348298
C        2.3370791736   -1.3937823782   -0.1148096644
C       -1.3205705484   -0.5106596151    0.5888448961
C        5.9106224176    1.0432267143    0.1352804060
C        5.0827791340    0.8827802665    1.2542513729
C       -0.1098977643   -1.2064473152    0.5178808862
C        3.9344139114    0.0926800993    1.1697855013
C        3.5946875904   -0.5537002928   -0.0311940689
C        4.4289868834   -0.3849856576   -1.1453994946
C        5.5803090114    0.4078724946   -1.0652547567
H        1.8331926596    1.2099948205   -0.8704534693
H       -0.3095836468    2.4480921290   -0.7555160738
H       -2.3366585106    1.3519222554    0.1864557088
H        2.3443133453   -2.1486749922    0.6821606394
H        2.3447002111   -1.9527429444   -1.0612298843
H       -2.1974380863   -0.9943975130    1.0075097592
H        6.8024041136    1.6578634523    0.2007705590
H        5.3330991188    1.3732749640    2.1894837439
H       -0.0524238864   -2.2284037230    0.8827214062
H        3.2878533616   -0.0210902558    2.0348394114
H        4.1746083053   -0.8768930816   -2.0798631303
H        6.2151335687    0.5272093884   -1.9374296270
25   
Dihedral (40,) Energy -502.554420537
C        0.9171714023    0.7316065430   -0.5891382209
C       -0.2555088650    1.4776836374   -0.4435281653
C       -1.3496075605    0.9416490850    0.2464039833
C        1.0149436094   -0.5625137784   -0.0521495766
C        2.2793012832   -1.3915044426   -0.2320605234
C       -1.2614018914   -0.3441411668    0.7896721336
C        5.9331505966    0.9075957412    0.1634278576
C        5.0554299847    0.7804186647    1.2483219553
C       -0.0855165012   -1.0877921366    0.6416362146
C        3.8811906684    0.0366697214    1.1157708167
C        3.5637544558   -0.5964691384   -0.0983399170
C        4.4474544878   -0.4614122455   -1.1781389908